/*--------------------------------*- C++ -*----------------------------------*\
  =========                 |
  \\      /  F ield         | OpenFOAM: The Open Source CFD Toolbox
   \\    /   O peration     | Website:  https://openfoam.org
    \\  /    A nd           | Version:  8
     \\/     M anipulation  |
\*---------------------------------------------------------------------------*/
/*   Windows 32 and 64 bit porting by blueCAPE: http://www.bluecape.com.pt   *\
|  Based on Windows porting (2.0.x v4) by Symscape: http://www.symscape.com   |
\*---------------------------------------------------------------------------*/
FoamFile
{
    version     2.0;
    format      ascii;
    class       volScalarField;
    location    "200";
    object      epsilon;
}
// * * * * * * * * * * * * * * * * * * * * * * * * * * * * * * * * * * * * * //

dimensions      [0 2 -3 0 0 0 0];

internalField   nonuniform List<scalar> 
12225
(
285.522
270.706
257.916
243.811
232.461
223.087
216.81
212.699
212.742
213.96
217.239
220.914
228.126
232.779
241.364
246.619
256.284
260.066
52.4924
91.883
106.974
114.749
124.844
136.784
152.693
169.904
191.122
210.934
235.256
255.49
281.109
299.361
324.824
339.563
363.707
379.43
20.5285
34.8724
44.6758
50.4687
55.3966
59.6067
64.6661
69.6413
76.3222
83.1826
91.4469
99.3198
108.193
116.947
125.58
135.333
142.576
154.094
16.0023
19.4862
24.0818
27.5633
30.4973
32.8688
35.1564
37.2926
39.5043
41.9173
44.3393
47.2034
49.6857
53.0451
55.4188
59.261
61.3994
65.7147
15.0385
15.7123
17.3993
19.0782
20.6396
22.0256
23.2466
24.4308
25.4447
26.5947
27.5242
28.7588
29.6335
30.9876
31.8147
33.2768
34.052
35.6748
14.7897
14.8256
15.2495
15.8675
16.5678
17.2869
17.9239
18.5841
19.1193
19.7341
20.1935
20.7993
21.2089
21.8235
22.1986
22.831
23.1639
23.8719
14.7658
14.6146
14.641
14.7257
14.9352
15.2199
15.4916
15.8089
16.071
16.3827
16.6182
16.9204
17.1311
17.4275
17.616
17.915
18.0723
18.4133
14.7687
14.5866
14.466
14.3801
14.3678
14.3896
14.4394
14.5334
14.6185
14.7367
14.8309
14.9566
15.0478
15.1764
15.2609
15.3936
15.4631
15.6242
14.768
14.591
14.4349
14.2963
14.185
14.1044
14.0399
14.0066
13.9814
13.9785
13.9809
13.9917
14.0037
14.03
14.0463
14.0813
14.097
14.1518
14.7665
14.594
14.432
14.282
14.143
14.0219
13.9115
13.8193
13.737
13.6698
13.6102
13.5633
13.5181
13.4872
13.4516
13.4344
13.4019
13.4012
14.7659
14.5945
14.4322
14.2803
14.1362
14.0032
13.8782
13.7644
13.6582
13.5629
13.4735
13.3952
13.3198
13.2561
13.1915
13.1408
13.0838
13.0452
14.7657
14.5943
14.4321
14.2798
14.1353
13.9999
13.8715
13.7518
13.6385
13.5336
13.4341
13.343
13.2557
13.1771
13.1002
13.0328
12.9647
12.9074
14.7657
14.5941
14.432
14.2794
14.1349
13.9989
13.8699
13.7485
13.6331
13.5249
13.4219
13.3257
13.2338
13.1483
13.0663
12.9906
12.9172
12.8502
14.7657
14.5939
14.4318
14.279
14.1346
13.9983
13.8692
13.7472
13.6315
13.5223
13.4184
13.3203
13.227
13.1389
13.055
12.9759
12.9002
12.8291
14.7657
14.5938
14.4317
14.2787
14.1342
13.9977
13.8686
13.7464
13.6307
13.5211
13.4171
13.3185
13.2248
13.136
13.0516
12.9715
12.8952
12.8228
14.7657
14.5937
14.4316
14.2785
14.1339
13.9973
13.8681
13.7458
13.63
13.5202
13.4161
13.3174
13.2236
13.1346
13.05
12.9697
12.8932
12.8205
14.7657
14.5937
14.4315
14.2783
14.1337
13.997
13.8677
13.7453
13.6294
13.5195
13.4154
13.3165
13.2227
13.1336
13.0489
12.9684
12.8919
12.819
14.7657
14.5937
14.4314
14.2782
14.1335
13.9968
13.8674
13.745
13.629
13.5191
13.4148
13.3159
13.222
13.1329
13.0481
12.9676
12.8909
12.818
14.7657
14.5937
14.4314
14.2782
14.1335
13.9967
13.8673
13.7448
13.6288
13.5189
13.4146
13.3157
13.2217
13.1325
13.0477
12.9671
12.8904
12.8175
14.7657
14.5937
14.4314
14.2782
14.1336
13.9968
13.8674
13.745
13.629
13.5191
13.4148
13.3159
13.222
13.1327
13.048
12.9674
12.8907
12.8177
14.7657
14.5937
14.4315
14.2784
14.1338
13.997
13.8677
13.7453
13.6294
13.5196
13.4155
13.3166
13.2229
13.1339
13.0494
12.969
12.8927
12.82
14.7657
14.5937
14.4316
14.2785
14.1341
13.9974
13.8685
13.7464
13.6312
13.522
13.419
13.3214
13.2293
13.1418
13.0595
12.981
12.9074
12.8369
14.7659
14.5937
14.4318
14.2788
14.1353
14.0002
13.8742
13.756
13.6463
13.5435
13.4485
13.3592
13.277
13.1992
13.1282
13.0602
12.9988
12.9387
14.7661
14.5928
14.4329
14.2844
14.1515
14.0321
13.9289
13.8375
13.7593
13.6894
13.6307
13.5769
13.5328
13.4905
13.4574
13.423
13.3989
13.3693
14.7641
14.5936
14.461
14.3604
14.3029
14.2767
14.2796
14.294
14.3202
14.3529
14.3959
14.4345
14.4824
14.5217
14.572
14.6089
14.6616
14.6938
14.757
14.6921
14.7579
14.9172
15.1828
15.4611
15.7475
16.012
16.2723
16.5038
16.736
16.9386
17.1507
17.3309
17.5309
17.6936
17.8888
18.0359
14.9575
15.4344
16.5693
17.6884
18.7053
19.5677
20.3372
20.9968
21.6194
22.166
22.7188
23.2107
23.7398
24.2042
24.7326
25.1825
25.7249
26.1658
16.2579
20.9389
25.015
27.7587
29.7844
31.3585
32.7766
34.0583
35.3592
36.6161
37.9752
39.297
40.7613
42.1455
43.7175
45.1733
46.8833
48.358
29.9428
47.225
54.8705
58.6735
61.6138
64.432
67.5794
70.9788
74.7377
78.7136
82.9848
87.3437
91.9044
96.4494
101.099
105.621
110.174
114.575
165.79
160.073
154.899
149.564
144.479
139.678
135.613
132.11
129.27
126.973
125.319
124.044
123.339
122.829
122.825
122.982
123.269
123.826
0.460426
0.488368
0.867932
1.22796
1.60949
2.01558
2.44955
2.90857
3.38545
3.87052
4.35485
4.83057
5.29188
5.73412
6.15375
6.54745
6.91177
7.24256
7.53435
7.78038
7.97236
8.1018
8.15807
8.14136
8.03077
7.88869
7.76684
8.01569
8.32724
8.5872
8.86658
9.02162
8.79253
9.19657
39.6639
39.8903
40.3987
44.7523
47.3086
50.9991
54.424
58.228
62.1075
66.2007
70.446
74.8776
79.4809
84.2724
89.2448
94.4128
99.7694
105.33
111.086
117.054
123.224
129.614
136.212
143.035
150.071
157.338
164.821
172.536
180.471
188.639
197.025
205.645
214.479
223.544
232.819
242.317
252.018
261.935
272.043
282.356
292.846
303.525
314.366
325.377
336.53
347.832
359.252
370.794
382.427
394.15
405.927
417.754
429.593
441.431
453.229
464.966
476.605
488.119
499.496
510.764
522.02
533.078
543.995
554.724
565.256
575.564
585.626
595.42
604.922
614.109
622.958
631.448
639.555
647.258
654.536
661.366
667.733
673.614
678.997
683.861
688.199
691.993
695.243
697.939
700.09
701.705
702.744
702.887
702.728
701.797
700.489
698.747
696.344
693.403
689.952
685.994
681.567
676.676
671.362
665.64
659.55
653.114
646.361
639.332
632.068
624.622
617.039
609.364
601.63
593.871
586.119
578.412
570.773
563.24
555.836
548.595
541.541
534.709
528.112
521.779
515.723
509.966
504.516
499.387
494.587
490.119
485.982
482.184
478.708
475.534
472.683
470.52
471.451
473.128
475.1
477.39
479.95
482.759
485.748
488.799
491.65
494.163
496.334
497.425
496.051
473.119
1.96211
1.16559
1.16475
1.31634
1.54665
1.83332
2.16662
2.53709
2.93471
3.34991
3.77458
4.20265
4.62994
5.05395
5.47318
5.88685
6.29413
6.69399
7.08445
7.46257
7.82405
8.17354
8.53869
8.94188
9.41036
9.98887
10.6817
11.4758
12.3567
13.4144
14.7996
16.6703
18.413
21.5991
24.6658
25.6051
27.1164
28.8776
30.519
32.3115
34.1286
36.0314
37.9902
40.0208
42.1181
44.2871
46.5276
48.8425
51.2321
53.6988
56.2427
58.8662
61.569
64.3535
67.2192
70.168
73.1992
76.3145
79.5129
82.7958
86.1618
89.6122
93.145
96.7612
100.458
104.237
108.095
112.031
116.044
120.131
124.291
128.522
132.819
137.182
141.605
146.087
150.623
155.21
159.841
164.515
169.223
173.962
178.724
183.504
188.293
193.084
197.868
202.637
207.382
212.096
216.775
221.418
226.036
230.659
235.344
239.987
244.568
249.078
253.512
257.859
262.112
266.26
270.297
274.212
277.997
281.643
285.141
288.484
291.661
294.666
297.49
300.127
302.568
304.808
306.84
308.66
310.264
311.647
312.807
313.737
314.424
314.846
315.052
315.008
314.782
314.35
313.668
312.753
311.622
310.282
308.742
307.008
305.092
303.003
300.754
298.355
295.819
293.16
290.397
287.547
284.628
281.657
278.647
275.614
272.571
269.532
266.512
263.522
260.576
257.687
254.868
252.131
249.486
246.943
244.512
242.201
240.018
237.969
236.06
234.293
232.673
231.203
229.885
228.717
227.718
227.006
227.042
227.306
227.722
228.287
228.943
229.703
230.541
231.395
232.174
232.858
233.429
234.048
234.265
233.425
3.8898
1.96448
1.74137
1.79122
1.95241
2.18703
2.47824
2.81464
3.18603
3.58314
3.99824
4.42565
4.86182
5.30518
5.75565
6.21431
6.68298
7.16413
7.66081
8.17747
8.72142
9.29917
9.90878
10.5601
11.2687
12.0429
12.8816
13.7867
14.7689
15.8593
17.0829
18.4139
19.8151
21.3494
22.7469
23.9836
25.3213
26.7187
28.1454
29.6321
31.1696
32.7628
34.4097
36.1121
37.8704
39.6858
41.5589
43.4908
45.4821
47.5338
49.6462
51.8204
54.0566
56.3555
58.7176
61.1432
63.6325
66.1858
68.8031
71.4845
74.2296
77.0384
79.9104
82.8452
85.842
88.9001
92.0184
95.1961
98.4317
101.724
105.071
108.471
111.923
115.424
118.971
122.562
126.195
129.866
133.572
137.311
141.077
144.867
148.677
152.502
156.338
160.181
164.025
167.866
171.701
175.527
179.343
183.149
186.948
190.745
194.535
198.287
201.995
205.649
209.245
212.774
216.231
219.607
222.897
226.093
229.187
232.173
235.044
237.792
240.41
242.893
245.233
247.424
249.461
251.337
253.048
254.589
255.957
257.146
258.154
258.976
259.608
260.047
260.276
260.332
260.233
259.949
259.475
258.819
257.988
256.989
255.828
254.51
253.045
251.439
249.702
247.843
245.873
243.803
241.646
239.415
237.124
234.785
232.409
230.009
227.596
225.181
222.775
220.389
218.033
215.718
213.452
211.246
209.108
207.046
205.067
203.178
201.386
199.695
198.111
196.636
195.274
194.027
192.898
191.887
191.002
190.291
189.885
189.638
189.525
189.502
189.497
189.568
189.699
189.815
189.842
189.823
189.787
189.889
190.16
190.967
5.91012
2.81814
2.37264
2.33939
2.45774
2.66374
2.93286
3.25193
3.61121
4.00256
4.41919
4.85602
5.30981
5.77913
6.26411
6.76616
7.28752
7.83104
8.39975
8.9967
9.62465
10.2855
10.9802
11.7114
12.4824
13.2947
14.1497
15.0505
16.0039
17.0185
18.0972
19.2345
20.4396
21.6606
22.8832
24.1197
25.4154
26.7596
28.1427
29.5706
31.0466
32.5726
34.1495
35.7781
37.4594
39.1941
40.9832
42.8273
44.7274
46.6842
48.6981
50.7699
52.9
55.0891
57.3375
59.6457
62.0141
64.443
66.9325
69.4827
72.0936
74.7652
77.4971
80.2892
83.1409
86.0517
89.0209
92.0475
95.1306
98.2691
101.461
104.706
108.002
111.347
114.738
118.174
121.652
125.17
128.724
132.312
135.931
139.576
143.246
146.935
150.64
154.357
158.084
161.815
165.548
169.281
173.011
176.735
180.453
184.16
187.845
191.496
195.105
198.666
202.172
205.616
208.991
212.292
215.509
218.638
221.67
224.599
227.418
230.119
232.697
235.143
237.453
239.619
241.636
243.499
245.201
246.739
248.108
249.304
250.323
251.163
251.82
252.294
252.563
252.656
252.597
252.352
251.928
251.329
250.56
249.628
248.536
247.292
245.902
244.375
242.718
240.942
239.055
237.069
234.995
232.845
230.631
228.366
226.06
223.725
221.372
219.011
216.653
214.308
211.986
209.696
207.447
205.248
203.107
201.031
199.027
197.102
195.261
193.508
191.849
190.286
188.822
187.458
186.193
185.03
183.969
183.033
182.267
181.623
181.08
180.607
180.156
179.738
179.345
178.932
178.48
178.011
177.555
177.262
177.258
177.877
7.8607
3.66625
3.00122
2.89071
2.96811
3.1493
3.40089
3.70675
4.05666
4.44292
4.85936
5.30127
5.7654
6.25002
6.75472
7.28023
7.82806
8.4002
8.99871
9.62547
10.2819
10.9688
11.6866
12.4361
13.2184
14.0355
14.8898
15.7838
16.7206
17.7032
18.7317
19.8032
20.9276
22.0952
23.2994
24.5452
25.8331
27.1642
28.541
29.966
31.4396
32.9629
34.537
36.163
37.8417
39.5743
41.3616
43.2046
45.1044
47.0622
49.0786
51.154
53.2892
55.4848
57.7416
60.0603
62.4413
64.8852
67.3924
69.9633
72.5981
75.297
78.0599
80.8869
83.7778
86.7321
89.7494
92.8291
95.9703
99.1722
102.434
105.753
109.129
112.56
116.044
119.578
123.161
126.79
130.463
134.175
137.924
141.708
145.521
149.362
153.225
157.107
161.005
164.914
168.831
172.751
176.671
180.586
184.489
188.375
192.235
196.06
199.845
203.581
207.261
210.879
214.428
217.899
221.286
224.582
227.778
230.868
233.844
236.699
239.425
242.016
244.464
246.764
248.908
250.891
252.708
254.352
255.82
257.107
258.209
259.123
259.848
260.382
260.707
260.835
260.801
260.574
260.16
259.563
258.787
257.839
256.723
255.445
254.013
252.434
250.717
248.872
246.908
244.836
242.668
240.415
238.09
235.704
233.269
230.797
228.299
225.785
223.267
220.755
218.259
215.787
213.35
210.955
208.61
206.324
204.102
201.951
199.877
197.883
195.974
194.152
192.419
190.777
189.224
187.761
186.387
185.112
183.95
182.886
181.902
180.981
180.094
179.232
178.387
177.535
176.67
175.809
174.991
174.343
173.955
174.11
9.68222
4.4744
3.59906
3.41411
3.45158
3.60856
3.84293
4.13518
4.47405
4.8518
5.26255
5.70182
6.16635
6.6541
7.16413
7.69647
8.25187
8.8316
9.43708
10.0698
10.7309
11.4215
12.1423
12.8946
13.6795
14.499
15.3554
16.2511
17.1884
18.1689
19.1938
20.2634
21.3791
22.5397
23.7445
24.9944
26.2901
27.6327
29.0233
30.4632
31.9536
33.4956
35.0905
36.7395
38.4438
40.2045
42.0228
43.8999
45.8367
47.8343
49.8938
52.0165
54.2037
56.4563
58.7754
61.162
63.617
66.1411
68.7353
71.4001
74.1361
76.9438
79.8235
82.7755
85.7997
88.8962
92.0647
95.3046
98.6155
101.996
105.446
108.964
112.548
116.196
119.908
123.679
127.508
131.393
135.33
139.316
143.348
147.422
151.534
155.681
159.858
164.06
168.283
172.523
176.775
181.032
185.291
189.543
193.782
198.001
202.192
206.347
210.46
214.521
218.524
222.461
226.324
230.105
233.795
237.387
240.872
244.243
247.492
250.61
253.589
256.423
259.103
261.622
263.973
266.15
268.147
269.958
271.577
273
274.223
275.243
276.058
276.666
277.054
277.218
277.204
276.981
276.554
275.929
275.11
274.101
272.909
271.54
270.001
268.3
266.446
264.449
262.32
260.069
257.708
255.25
252.707
250.091
247.415
244.691
241.93
239.145
236.346
233.545
230.751
227.975
225.226
222.512
219.843
217.224
214.663
212.166
209.74
207.387
205.112
202.918
200.806
198.778
196.834
194.973
193.193
191.499
189.894
188.371
186.92
185.526
184.174
182.852
181.55
180.259
178.977
177.723
176.535
175.523
174.736
174.329
11.329
5.21763
4.14553
3.88858
3.8869
4.01891
4.23494
4.5119
4.83715
5.20265
5.60261
6.03276
6.48991
6.97196
7.47771
8.00682
8.55963
9.137
9.74008
10.3702
11.0288
11.717
12.4364
13.1882
13.9741
14.7959
15.6556
16.5552
17.4965
18.4809
19.5096
20.5834
21.7031
22.8691
24.082
25.3427
26.6522
28.0117
29.4222
30.885
32.4014
33.9729
35.6007
37.2865
39.0315
40.8373
42.7053
44.6371
46.6341
48.6977
50.8295
53.0311
55.3039
57.6495
60.0692
62.5644
65.1364
67.7866
70.5159
73.3255
76.2163
79.1892
82.2447
85.3835
88.6058
91.9118
95.3015
98.7746
102.331
105.969
109.688
113.488
117.366
121.321
125.35
129.451
133.622
137.859
142.16
146.52
150.937
155.404
159.92
164.477
169.072
173.7
178.355
183.03
187.721
192.42
197.121
201.816
206.497
211.155
215.784
220.374
224.917
229.405
233.829
238.18
242.45
246.629
250.709
254.681
258.535
262.263
265.856
269.305
272.602
275.738
278.704
281.494
284.099
286.512
288.726
290.736
292.535
294.118
295.48
296.619
297.532
298.217
298.663
298.862
298.856
298.622
298.164
297.485
296.592
295.49
294.183
292.68
290.986
289.112
287.066
284.858
282.501
280.005
277.382
274.647
271.811
268.888
265.891
262.833
259.726
256.584
253.418
250.24
247.06
243.889
240.737
237.612
234.524
231.48
228.487
225.551
222.679
219.875
217.144
214.488
211.909
209.41
206.991
204.65
202.389
200.207
198.105
196.08
194.125
192.231
190.387
188.585
186.817
185.079
183.374
181.722
180.158
178.771
177.578
176.647
12.7685
5.87793
4.6265
4.2975
4.25972
4.36639
4.56296
4.82303
5.13258
5.48311
5.86884
6.28567
6.73062
7.20167
7.69763
8.21805
8.7631
9.33348
9.93022
10.5546
11.2081
11.892
12.608
13.3576
14.1426
14.9647
15.8257
16.7273
17.6712
18.6588
19.6913
20.7699
21.8956
23.0694
24.2924
25.5659
26.8913
28.27
29.7034
31.1929
32.7403
34.3471
36.0151
37.7459
39.5415
41.4035
43.334
45.3348
47.4077
49.5549
51.7781
54.0795
56.461
58.9245
61.4718
64.105
66.8257
69.6356
72.5363
75.5294
78.6162
81.7979
85.0755
88.4498
91.9216
95.4912
99.1589
102.924
106.788
110.748
114.804
118.954
123.198
127.532
131.955
136.465
141.057
145.728
150.475
155.294
160.18
165.127
170.132
175.188
180.289
185.429
190.601
195.799
201.015
206.241
211.469
216.691
221.897
227.078
232.225
237.329
242.379
247.368
252.284
257.119
261.861
266.502
271.031
275.438
279.714
283.848
287.831
291.653
295.305
298.778
302.062
305.15
308.032
310.701
313.15
315.371
317.358
319.106
320.611
321.867
322.872
323.625
324.117
324.338
324.324
324.058
323.543
322.784
321.786
320.556
319.098
317.421
315.532
313.44
311.154
308.687
306.049
303.254
300.313
297.242
294.053
290.76
287.379
283.921
280.402
276.834
273.231
269.604
265.965
262.326
258.696
255.085
251.502
247.955
244.453
241.001
237.607
234.275
231.01
227.816
224.697
221.653
218.688
215.801
212.993
210.263
207.613
205.042
202.545
200.119
197.756
195.451
193.2
191.003
188.864
186.803
184.851
183.08
181.48
180.068
13.981
6.44313
5.03275
4.63633
4.56356
4.64484
4.82127
5.06346
5.3561
5.69017
6.05987
6.46124
6.89149
7.34881
7.83208
8.34086
8.87534
9.43616
10.0243
10.6412
11.2881
11.966
12.6766
13.4218
14.2034
15.0231
15.8826
16.7836
17.7279
18.7168
19.752
20.8347
21.9665
23.1486
24.3824
25.6691
27.0113
28.4108
29.8692
31.3885
32.9707
34.6178
36.3319
38.1152
39.9697
41.898
43.9022
45.9848
48.1483
50.395
52.7275
55.1483
57.66
60.2649
62.9655
65.7643
68.6636
71.6655
74.7722
77.9856
81.3077
84.7399
88.2837
91.9403
95.7107
99.5954
103.595
107.709
111.938
116.281
120.736
125.303
129.979
134.762
139.65
144.639
149.725
154.906
160.175
165.528
170.96
176.465
182.036
187.667
193.35
199.079
204.845
210.639
216.454
222.279
228.106
233.924
239.722
245.491
251.22
256.898
262.515
268.059
273.52
278.886
284.146
289.291
294.307
299.185
303.913
308.481
312.878
317.093
321.117
324.94
328.552
331.943
335.105
338.03
340.71
343.136
345.303
347.205
348.837
350.193
351.273
352.072
352.584
352.803
352.753
352.425
351.822
350.949
349.812
348.416
346.769
344.878
342.751
340.398
337.829
335.056
332.091
328.948
325.64
322.181
318.587
314.872
311.051
307.139
303.15
299.099
294.999
290.863
286.704
282.534
278.363
274.202
270.061
265.947
261.871
257.838
253.856
249.931
246.069
242.274
238.55
234.901
231.33
227.839
224.429
221.101
217.857
214.699
211.626
208.635
205.727
202.897
200.144
197.472
194.887
192.407
190.057
187.895
185.889
184.032
14.958
6.90767
5.36151
4.90406
4.79793
4.85436
5.01051
5.2345
5.50981
5.82696
6.18004
6.56519
6.97983
7.42235
7.8918
8.38728
8.90927
9.45862
10.0364
10.6441
11.2835
11.9546
12.6593
13.3993
14.1762
14.992
15.8484
16.7472
17.6902
18.6791
19.7156
20.8015
21.9386
23.1285
24.3733
25.6747
27.0366
28.4594
29.9459
31.4991
33.1214
34.8151
36.583
38.4276
40.3517
42.358
44.4496
46.6292
48.9001
51.2652
53.7277
56.2906
58.9572
61.7305
64.6136
67.6095
70.7211
73.9511
77.3023
80.7771
84.3778
88.1064
91.9648
95.9543
100.076
104.332
108.721
113.243
117.9
122.688
127.609
132.659
137.836
143.138
148.561
154.102
159.756
165.517
171.382
177.343
183.395
189.529
195.739
202.016
208.353
214.738
221.165
227.621
234.097
240.583
247.067
253.537
259.982
266.39
272.748
279.044
285.267
291.404
297.442
303.369
309.173
314.842
320.363
325.725
330.915
335.921
340.734
345.34
349.731
353.894
357.82
361.5
364.924
368.084
370.97
373.576
375.895
377.92
379.646
381.07
382.187
382.996
383.49
383.67
383.546
383.115
382.382
381.352
380.033
378.43
376.55
374.401
371.993
369.335
366.437
363.313
359.976
356.439
352.717
348.826
344.78
340.595
336.287
331.871
327.363
322.778
318.131
313.436
308.706
303.952
299.189
294.425
289.671
284.938
280.233
275.565
270.942
266.371
261.858
257.41
253.031
248.726
244.5
240.357
236.299
232.331
228.455
224.675
220.994
217.413
213.934
210.559
207.289
204.128
201.085
198.175
195.419
192.861
190.456
188.183
15.7009
7.27129
5.6143
5.10358
4.96653
4.99928
5.13564
5.34166
5.59985
5.9003
6.23699
6.60606
7.00493
7.43252
7.8887
8.37259
8.88402
9.42349
9.99184
10.5901
11.2194
11.8807
12.5762
13.3079
14.0777
14.8874
15.739
16.6345
17.5759
18.5653
19.6047
20.6963
21.8423
23.0449
24.3063
25.628
27.0125
28.4629
29.9835
31.5779
33.249
34.9998
36.8336
38.7534
40.7626
42.8645
45.0628
47.361
49.7629
52.2722
54.8928
57.6284
60.4828
63.46
66.5635
69.797
73.164
76.668
80.312
84.0991
88.032
92.113
96.3443
100.728
105.264
109.955
114.8
119.8
124.955
130.262
135.72
141.327
147.08
152.976
159.01
165.178
171.474
177.892
184.426
191.067
197.809
204.643
211.559
218.549
225.6
232.704
239.848
247.021
254.21
261.404
268.59
275.754
282.882
289.961
296.977
303.917
310.766
317.51
324.137
330.632
336.982
343.173
349.192
355.025
360.662
366.088
371.292
376.262
380.988
385.457
389.661
393.589
397.232
400.581
403.628
406.364
408.784
410.881
412.65
414.088
415.19
415.954
416.378
416.463
416.214
415.626
414.71
413.473
411.921
410.059
407.897
405.442
402.704
399.694
396.423
392.903
389.148
385.174
380.994
376.626
372.085
367.387
362.549
357.588
352.519
347.358
342.122
336.825
331.48
326.102
320.702
315.293
309.885
304.488
299.113
293.768
288.462
283.203
277.998
272.855
267.781
262.781
257.862
253.03
248.29
243.647
239.109
234.679
230.365
226.172
222.104
218.166
214.364
210.703
207.192
203.845
200.678
197.725
194.929
192.268
16.2217
7.53828
5.79594
5.24061
5.07582
5.08672
5.2043
5.39311
5.6349
5.91928
6.2407
6.59635
6.98251
7.39749
7.84002
8.30918
8.80621
9.33196
9.88736
10.4735
11.0918
11.7441
12.4319
13.157
13.9215
14.7274
15.5768
16.472
17.4154
18.4094
19.4565
20.5592
21.7201
22.9422
24.2285
25.5811
27.0024
28.4945
30.0627
31.7126
33.4481
35.2739
37.194
39.2119
41.3315
43.5569
45.8922
48.3421
50.9109
53.6032
56.4235
59.3763
62.4663
65.6979
69.0755
72.6034
76.2857
80.1262
84.1286
88.2963
92.6322
97.1389
101.819
106.673
111.704
116.912
122.296
127.857
133.593
139.503
145.583
151.832
158.245
164.818
171.545
178.42
185.437
192.588
199.864
207.257
214.758
222.355
230.038
237.796
245.615
253.485
261.391
269.319
277.256
285.188
293.1
300.976
308.802
316.561
324.239
331.82
339.288
346.629
353.827
360.867
367.735
374.415
380.895
387.16
393.196
398.991
404.533
409.81
414.81
419.522
423.937
428.045
431.836
435.302
438.435
441.228
443.675
445.769
447.507
448.884
449.897
450.546
450.829
450.75
450.305
449.492
448.331
446.824
444.979
442.801
440.3
437.486
434.367
430.954
427.26
423.297
419.081
414.625
409.947
405.061
399.986
394.737
389.332
383.788
378.122
372.351
366.491
360.558
354.566
348.529
342.461
336.374
330.279
324.188
318.111
312.058
306.038
300.061
294.135
288.268
282.47
276.747
271.108
265.561
260.114
254.775
249.552
244.454
239.489
234.668
229.998
225.487
221.144
216.975
212.991
209.204
205.625
202.28
199.105
196.083
16.5425
7.71907
5.91431
5.32313
5.13393
5.12593
5.2258
5.39877
5.62693
5.89856
6.2069
6.54713
6.91735
7.31674
7.74482
8.20185
8.68791
9.20362
9.74992
10.3281
10.9395
11.5861
12.2695
12.9921
13.7559
14.5633
15.4166
16.3186
17.2721
18.2802
19.3463
20.4724
21.6616
22.9171
24.2415
25.6362
27.1077
28.6618
30.3037
32.0382
33.87
35.8042
37.8466
40.0016
42.2737
44.668
47.1898
49.8442
52.6367
55.5726
58.6572
61.8958
65.2936
68.8557
72.5871
76.4926
80.5767
84.8436
89.2971
93.9407
98.7775
103.81
109.04
114.469
120.097
125.926
131.953
138.179
144.6
151.214
158.017
165.005
172.173
179.514
187.022
194.688
202.505
210.462
218.551
226.759
235.076
243.489
251.985
260.55
269.172
277.834
286.521
295.219
303.911
312.581
321.212
329.788
338.291
346.705
355.012
363.195
371.239
379.125
386.839
394.363
401.682
408.782
415.646
422.262
428.614
434.691
440.48
445.969
451.147
456.003
460.529
464.715
468.552
472.032
475.149
477.896
480.268
482.259
483.867
485.087
485.918
486.36
486.412
486.087
485.353
484.241
482.758
480.909
478.702
476.143
473.241
470.007
466.451
462.583
458.416
453.963
449.24
444.261
439.044
433.604
427.959
422.126
416.123
409.967
403.676
397.268
390.758
384.164
377.5
370.782
364.023
357.237
350.435
343.629
336.83
330.049
323.296
316.582
309.916
303.309
296.77
290.308
283.934
277.658
271.491
265.442
259.523
253.746
248.123
242.667
237.388
232.3
227.412
222.736
218.279
214.053
210.066
206.339
202.801
199.448
16.6565
7.81348
5.97408
5.35786
5.14846
5.12533
5.21228
5.3726
5.58608
5.84241
6.13605
6.46363
6.82286
7.21237
7.6316
8.08061
8.55983
9.07006
9.61236
10.1881
10.799
11.4469
12.1342
12.8634
13.6377
14.4589
15.3297
16.2534
17.2332
18.2719
19.3717
20.5357
21.7696
23.0784
24.4669
25.9404
27.504
29.1636
30.9247
32.7932
34.775
36.8765
39.1036
41.462
43.9579
46.5975
49.3872
52.3333
55.4421
58.7194
62.1713
65.8037
69.6221
73.6321
77.839
82.2476
86.8624
91.6876
96.7266
101.983
107.458
113.154
119.072
125.213
131.576
138.16
144.962
151.98
159.21
166.647
174.287
182.122
190.146
198.349
206.724
215.261
223.948
232.775
241.728
250.796
259.965
269.219
278.545
287.926
297.346
306.79
316.239
325.677
335.085
344.447
353.743
362.956
372.067
381.058
389.91
398.606
407.127
415.456
423.577
431.472
439.126
446.522
453.646
460.483
467.02
473.244
479.143
484.707
489.924
494.786
499.283
503.407
507.152
510.511
513.477
516.046
518.213
519.975
521.329
522.272
522.804
522.929
522.656
521.957
520.847
519.345
517.454
515.182
512.535
509.522
506.152
502.436
498.384
494.006
489.317
484.328
479.056
473.516
467.724
461.698
455.454
449.011
442.385
435.595
428.659
421.594
414.418
407.148
399.799
392.387
384.926
377.429
369.91
362.38
354.851
347.334
339.842
332.384
324.974
317.62
310.335
303.131
296.018
289.01
282.12
275.36
268.745
262.291
256.011
249.922
244.039
238.378
232.952
227.773
222.852
218.198
213.816
209.722
205.841
202.191
16.6275
7.83048
5.98233
5.35381
5.13245
5.09755
5.17009
5.31665
5.51878
5.76589
6.05171
6.37259
6.72634
7.11184
7.52869
7.97714
8.45794
8.97254
9.52188
10.1074
10.7311
11.3954
12.1027
12.8556
13.6559
14.5061
15.4113
16.3758
17.4039
18.5002
19.67
20.9178
22.2488
23.6689
25.1843
26.8014
28.5267
30.3669
32.3288
34.4194
36.6459
39.0157
41.5356
44.213
47.0556
50.0711
53.2674
56.6521
60.2317
64.0124
68.0002
72.2009
76.62
81.2626
86.1334
91.2367
96.576
102.154
107.974
114.036
120.342
126.891
133.682
140.715
147.985
155.49
163.224
171.183
179.361
187.75
196.343
205.13
214.102
223.248
232.556
242.016
251.613
261.334
271.165
281.091
291.096
301.163
311.278
321.421
331.575
341.723
351.845
361.924
371.939
381.873
391.707
401.42
410.994
420.411
429.65
438.693
447.522
456.12
464.469
472.553
480.356
487.862
495.057
501.926
508.457
514.638
520.458
525.908
530.977
535.658
539.944
543.827
547.304
550.368
553.016
555.243
557.047
558.425
559.381
559.906
560.002
559.696
558.942
557.764
556.175
554.181
551.789
549.006
545.839
542.297
538.39
534.128
529.523
524.585
519.325
513.759
507.901
501.767
495.372
488.735
481.872
474.8
467.537
460.101
452.51
444.781
436.933
428.983
420.946
412.839
404.676
396.47
388.236
379.985
371.729
363.482
355.255
347.06
338.91
330.817
322.794
314.855
307.013
299.282
291.679
284.219
276.919
269.799
262.875
256.167
249.694
243.476
237.528
231.865
226.498
221.436
216.679
212.245
208.045
204.131
16.4992
7.80599
5.96076
5.32291
5.08872
5.04326
5.10872
5.24996
5.44823
5.6933
5.97949
6.3033
6.66242
7.056
7.48395
7.9467
8.445
8.97957
9.55072
10.1621
10.8167
11.5178
12.2691
13.0744
13.9386
14.8656
15.8604
16.9283
18.0752
19.3072
20.6312
22.0535
23.5813
25.2221
26.9836
28.874
30.9017
33.0751
35.4026
37.8924
40.5529
43.3914
46.4158
49.6357
53.0603
56.6991
60.5626
64.6605
68.9966
73.5754
78.4013
83.4785
88.8105
94.4005
100.251
106.363
112.738
119.376
126.275
133.434
140.851
148.521
156.44
164.604
173.004
181.636
190.489
199.557
208.83
218.296
227.947
237.769
247.75
257.878
268.139
278.518
289.001
299.573
310.217
320.917
331.657
342.419
353.185
363.937
374.658
385.328
395.929
406.441
416.846
427.124
437.257
447.225
457.009
466.591
475.951
485.073
493.937
502.528
510.828
518.823
526.496
533.834
540.822
547.448
553.701
559.569
565.045
570.119
574.784
579.034
582.863
586.268
589.244
591.789
593.901
595.576
596.816
597.613
597.991
597.919
597.434
596.484
595.118
593.332
591.132
588.525
585.519
582.121
578.339
574.181
569.656
564.776
559.551
553.992
548.11
541.918
535.432
528.667
521.639
514.363
506.857
499.137
491.22
483.125
474.868
466.468
457.943
449.309
440.582
431.779
422.915
414.004
405.058
396.091
387.115
378.143
369.188
360.265
351.385
342.563
333.813
325.151
316.593
308.154
299.853
291.709
283.743
275.978
268.433
261.128
254.09
247.339
240.885
234.751
228.953
223.5
218.391
213.644
209.172
205.06
16.254
7.74149
5.90682
5.26763
5.03424
4.99135
5.06172
5.21059
5.41906
5.67716
5.97906
6.31923
6.69789
7.11528
7.57215
8.06986
8.61038
9.19653
9.83134
10.5181
11.2609
12.0646
12.9346
13.8767
14.8976
16.0038
17.2025
18.5014
19.909
21.4338
23.0851
24.8726
26.8061
28.8957
31.152
33.5852
36.206
39.0245
42.0508
45.2946
48.7646
52.4696
56.4179
60.6181
65.0783
69.8067
74.8103
80.1006
85.6759
91.5356
97.6789
104.105
110.812
117.797
125.058
132.589
140.388
148.446
156.76
165.32
174.119
183.149
192.401
201.865
211.53
221.386
231.422
241.625
251.985
262.488
273.122
283.872
294.727
305.671
316.69
327.769
338.894
350.048
361.217
372.384
383.532
394.646
405.707
416.7
427.605
438.407
449.088
459.629
470.013
480.221
490.236
500.041
509.617
518.948
528.016
536.804
545.297
553.478
561.334
568.85
576.013
582.81
589.229
595.259
600.889
606.112
610.923
615.312
619.275
622.807
625.907
628.571
630.796
632.587
633.942
634.851
635.334
635.352
635
634.155
632.894
631.211
629.113
626.606
623.694
620.386
616.689
612.609
608.154
603.332
598.15
592.621
586.754
580.557
574.042
567.222
560.11
552.721
545.071
537.173
529.045
520.7
512.157
503.432
494.542
485.504
476.336
467.055
457.677
448.218
438.692
429.115
419.498
409.856
400.2
390.544
380.902
371.29
361.721
352.211
342.775
333.432
324.199
315.095
306.139
297.354
288.763
280.379
272.238
264.363
256.787
249.533
242.647
236.127
229.981
224.218
218.836
213.849
209.16
204.899
15.9466
7.6255
5.83183
5.2144
4.9991
4.97462
5.0646
5.23253
5.46356
5.7493
6.08534
6.4701
6.90304
7.38527
7.91896
8.50727
9.15422
9.86476
10.6444
11.4992
12.436
13.4629
14.5886
15.8228
17.1755
18.6576
20.2806
22.0568
23.9987
26.1195
28.4322
30.9501
33.6864
36.6544
39.8666
43.3346
47.0696
51.0819
55.3808
59.9737
64.8665
70.0643
75.5721
81.3926
87.5276
93.9796
100.749
107.837
115.229
122.913
130.881
139.121
147.623
156.377
165.37
174.593
184.032
193.677
203.515
213.535
223.724
234.071
244.563
255.188
265.935
276.792
287.746
298.785
309.898
321.073
332.298
343.559
354.846
366.145
377.444
388.731
399.991
411.213
422.382
433.485
444.508
455.436
466.255
476.951
487.508