/*--------------------------------*- C++ -*----------------------------------*\
  =========                 |
  \\      /  F ield         | OpenFOAM: The Open Source CFD Toolbox
   \\    /   O peration     | Website:  https://openfoam.org
    \\  /    A nd           | Version:  8
     \\/     M anipulation  |
\*---------------------------------------------------------------------------*/
/*   Windows 32 and 64 bit porting by blueCAPE: http://www.bluecape.com.pt   *\
|  Based on Windows porting (2.0.x v4) by Symscape: http://www.symscape.com   |
\*---------------------------------------------------------------------------*/
FoamFile
{
    version     2.0;
    format      ascii;
    class       volScalarField;
    location    "200";
    object      k;
}
// * * * * * * * * * * * * * * * * * * * * * * * * * * * * * * * * * * * * * //

dimensions      [0 2 -2 0 0 0 0];

internalField   nonuniform List<scalar> 
12225
(
0.362813
0.343993
0.327744
0.30982
0.295399
0.283485
0.27551
0.270286
0.270342
0.271881
0.276062
0.280694
0.289887
0.295791
0.306678
0.313291
0.324079
0.334132
0.440186
0.468698
0.461605
0.44837
0.450349
0.458314
0.474539
0.498563
0.524393
0.552153
0.580759
0.606216
0.633886
0.653968
0.679872
0.693342
0.717754
0.728825
0.390541
0.417873
0.420231
0.416826
0.411628
0.407804
0.408019
0.410037
0.414556
0.421405
0.430736
0.439724
0.451206
0.461181
0.472902
0.483629
0.493622
0.506317
0.377546
0.386982
0.391406
0.391342
0.390222
0.387897
0.385662
0.384081
0.382882
0.382897
0.383389
0.384326
0.386307
0.388476
0.390929
0.394279
0.396557
0.401082
0.374561
0.37609
0.378412
0.378665
0.378263
0.377205
0.375488
0.373738
0.37201
0.370455
0.369259
0.368106
0.367383
0.366808
0.366447
0.366348
0.366364
0.366731
0.373814
0.37271
0.372645
0.372384
0.371761
0.370817
0.369553
0.368083
0.366571
0.364976
0.363528
0.362063
0.360755
0.35953
0.358397
0.35743
0.356444
0.355792
0.373782
0.371742
0.370386
0.369287
0.368234
0.367114
0.365915
0.364587
0.363238
0.361808
0.360422
0.359023
0.357677
0.356382
0.35512
0.353966
0.352794
0.351805
0.37382
0.37156
0.369634
0.367977
0.3665
0.365108
0.363775
0.362429
0.361107
0.359766
0.35845
0.357143
0.355863
0.354622
0.3534
0.352249
0.351098
0.350052
0.373832
0.371554
0.369449
0.367525
0.365776
0.364153
0.362645
0.361199
0.359817
0.358473
0.357169
0.355902
0.354667
0.353474
0.352307
0.351195
0.350096
0.349072
0.373831
0.37156
0.369418
0.367405
0.365529
0.363772
0.362133
0.360585
0.359122
0.357728
0.356394
0.355117
0.353888
0.35271
0.351569
0.350481
0.349419
0.34842
0.373829
0.37156
0.369413
0.367378
0.365458
0.363645
0.361937
0.360324
0.358798
0.357353
0.355979
0.354672
0.353424
0.352235
0.351094
0.350008
0.348958
0.347968
0.373828
0.371558
0.369409
0.36737
0.365439
0.363609
0.361875
0.360234
0.358677
0.357201
0.3558
0.354468
0.3532
0.351994
0.350842
0.349747
0.348695
0.3477
0.373827
0.371556
0.369405
0.367365
0.36543
0.363593
0.361851
0.360197
0.358626
0.357134
0.355715
0.354367
0.353084
0.351864
0.3507
0.349594
0.348535
0.347531
0.373826
0.371555
0.369401
0.36736
0.365422
0.363583
0.361837
0.360178
0.3586
0.357101
0.355674
0.354317
0.353024
0.351794
0.350622
0.349506
0.34844
0.347427
0.373826
0.371553
0.369398
0.367355
0.365416
0.363575
0.361826
0.360164
0.358584
0.357081
0.355651
0.354289
0.352993
0.351758
0.35058
0.349459
0.348388
0.347369
0.373826
0.371552
0.369396
0.367351
0.36541
0.363567
0.361817
0.360153
0.358572
0.357067
0.355634
0.354271
0.352972
0.351734
0.350554
0.34943
0.348357
0.347334
0.373825
0.371551
0.369394
0.367348
0.365406
0.363562
0.36181
0.360145
0.358562
0.357055
0.355621
0.354256
0.352955
0.351716
0.350535
0.349408
0.348334
0.347309
0.373825
0.371551
0.369393
0.367346
0.365403
0.363558
0.361805
0.360139
0.358555
0.357047
0.355612
0.354246
0.352944
0.351703
0.350521
0.349393
0.348317
0.347291
0.373825
0.37155
0.369393
0.367346
0.365402
0.363557
0.361804
0.360137
0.358552
0.357044
0.355608
0.354241
0.352938
0.351697
0.350514
0.349385
0.348308
0.347281
0.373825
0.371551
0.369393
0.367347
0.365404
0.363559
0.361806
0.36014
0.358555
0.357047
0.355611
0.354244
0.352942
0.351701
0.350517
0.349389
0.348313
0.347285
0.373825
0.371551
0.369395
0.367349
0.365407
0.363563
0.361811
0.360146
0.358562
0.357055
0.355621
0.354256
0.352955
0.351716
0.350534
0.349408
0.348334
0.347308
0.373826
0.371553
0.369397
0.367352
0.365412
0.363571
0.361822
0.360161
0.358583
0.357083
0.355657
0.354299
0.353007
0.351775
0.350603
0.349484
0.348418
0.347399
0.373826
0.371554
0.369399
0.367359
0.365429
0.363603
0.361875
0.36024
0.358691
0.35722
0.355823
0.354494
0.353227
0.352019
0.350866
0.349763
0.348711
0.347701
0.373828
0.371551
0.369412
0.367417
0.365556
0.363819
0.362189
0.360651
0.359189
0.357794
0.356456
0.355172
0.353936
0.352746
0.351601
0.350496
0.349437
0.348411
0.373823
0.371554
0.369605
0.367893
0.366339
0.364892
0.363495
0.362122
0.360761
0.359414
0.358081
0.35677
0.355489
0.354238
0.353029
0.351856
0.350735
0.349646
0.373788
0.371991
0.371113
0.370266
0.36936
0.368312
0.367048
0.36563
0.364121
0.362575
0.36103
0.359522
0.358073
0.356682
0.355382
0.354142
0.35301
0.351924
0.374355
0.375572
0.377775
0.377858
0.377288
0.375886
0.373835
0.371641
0.369505
0.367482
0.365664
0.364084
0.36271
0.361535
0.36061
0.359818
0.359289
0.3588
0.379125
0.394296
0.398249
0.396573
0.392538
0.387603
0.383646
0.380448
0.378268
0.376852
0.376496
0.37674
0.377414
0.378689
0.38044
0.382421
0.384825
0.387135
0.408394
0.42754
0.422416
0.411055
0.402226
0.397923
0.398625
0.400962
0.406068
0.413052
0.420997
0.429825
0.438832
0.448185
0.457301
0.466545
0.475314
0.484173
0.36605
0.353416
0.341988
0.33021
0.318982
0.308381
0.299411
0.291671
0.285404
0.280333
0.276682
0.273866
0.272311
0.271173
0.27121
0.271472
0.272187
0.273388
0.00157653
0.00764645
0.0135971
0.0192255
0.0251789
0.0315191
0.0382976
0.0454788
0.0529457
0.0605519
0.0681495
0.0756164
0.0828507
0.0897762
0.0963255
0.102445
0.108082
0.113195
0.117752
0.121751
0.125222
0.128065
0.130179
0.133232
0.135843
0.138607
0.141138
0.145738
0.147874
0.148471
0.147102
0.14509
0.140505
0.136539
0.129902
0.141964
0.14629
0.155208
0.161438
0.169574
0.177075
0.185172
0.193247
0.201586
0.210046
0.218694
0.227491
0.236464
0.245591
0.254892
0.26435
0.273981
0.28377
0.293732
0.30385
0.314141
0.324586
0.335202
0.345967
0.356898
0.367974
0.379209
0.390581
0.402104
0.413755
0.425547
0.437455
0.449491
0.461629
0.473882
0.486222
0.49866
0.511166
0.523753
0.536389
0.549084
0.561807
0.574566
0.58733
0.600107
0.612863
0.625604
0.638295
0.65094
0.663501
0.675978
0.688332
0.700556
0.712613
0.724486
0.736144
0.747562
0.75873
0.769676
0.780491
0.791049
0.801366
0.811418
0.821198
0.830686
0.839868
0.848727
0.857247
0.865413
0.873209
0.880619
0.887629
0.894223
0.900388
0.90611
0.911377
0.916175
0.920496
0.924326
0.927661
0.93049
0.932814
0.934627
0.93594
0.936769
0.937027
0.936552
0.935756
0.934249
0.932375
0.930143
0.927342
0.923998
0.920194
0.915917
0.911199
0.906046
0.900487
0.894536
0.888221
0.881559
0.874561
0.867274
0.859737
0.85199
0.844073
0.836023
0.827871
0.819648
0.811385
0.803111
0.79486
0.786659
0.77854
0.770531
0.762661
0.754955
0.747439
0.740137
0.733073
0.726266
0.719735
0.713496
0.707563
0.701942
0.696645
0.691681
0.687043
0.682739
0.678944
0.67752
0.677753
0.677924
0.678503
0.679436
0.680706
0.682214
0.683928
0.685788
0.687677
0.689406
0.690583
0.690894
0.689086
0.667942
0.00674877
0.0224492
0.0325739
0.0404084
0.0475341
0.0546539
0.0620327
0.069725
0.0776681
0.0857505
0.0938512
0.101865
0.109708
0.117316
0.124641
0.131644
0.138294
0.144571
0.150465
0.155995
0.16122
0.166261
0.171342
0.176817
0.182918
0.189898
0.197418
0.204224
0.210046
0.21551
0.221098
0.228359
0.238704
0.247345
0.258207
0.272754
0.286507
0.298979
0.311199
0.324213
0.337544
0.351236
0.365235
0.379558
0.394189
0.409134
0.424389
0.439959
0.455842
0.472044
0.488564
0.505408
0.522574
0.540068
0.557889
0.57604
0.594521
0.613333
0.632474
0.651945
0.671742
0.691865
0.712308
0.733071
0.754144
0.775527
0.797208
0.819185
0.841444
0.863981
0.886782
0.909839
0.933138
0.956668
0.980412
1.00436
1.02849
1.05279
1.07724
1.10182
1.12652
1.15131
1.17617
1.20107
1.226
1.25091
1.27579
1.3006
1.3253
1.34985
1.37421
1.39833
1.42213
1.44554
1.46847
1.49108
1.51337
1.53532
1.5569
1.57807
1.59881
1.61908
1.63885
1.65808
1.67673
1.69479
1.71219
1.72893
1.74495
1.76023
1.77474
1.78844
1.8013
1.81329
1.82439
1.83458
1.84382
1.8521
1.85941
1.86573
1.87104
1.87533
1.87861
1.88055
1.88148
1.88182
1.88115
1.87931
1.87646
1.87264
1.86788
1.8622
1.85563
1.84822
1.84
1.83102
1.82133
1.81099
1.80005
1.78859
1.77668
1.76439
1.75178
1.73892
1.72587
1.7127
1.69948
1.68625
1.6731
1.66008
1.64725
1.63467
1.6224
1.6105
1.59901
1.58798
1.57747
1.5675
1.55813
1.54937
1.54125
1.53379
1.52701
1.5209
1.51551
1.51112
1.50752
1.50466
1.50242
1.50073
1.49948
1.49848
1.49759
1.49663
1.4954
1.49368
1.49107
1.48764
1.48058
1.45625
0.0134034
0.0364653
0.0493992
0.05916
0.0678411
0.0762001
0.0845746
0.0930956
0.101776
0.110565
0.11939
0.12818
0.136876
0.145437
0.153838
0.162067
0.170125
0.178026
0.185806
0.193528
0.201299
0.209283
0.21769
0.22672
0.236485
0.246921
0.257685
0.268519
0.279394
0.290624
0.302679
0.315666
0.329684
0.344041
0.359252
0.375236
0.391379
0.407653
0.42416
0.441087
0.458414
0.476139
0.494249
0.512745
0.531624
0.550887
0.570535
0.590569
0.610991
0.631802
0.653005
0.674602
0.696593
0.718981
0.741764
0.764945
0.788522
0.812495
0.836861
0.861618
0.886761
0.912289
0.938194
0.964471
0.991114
1.01811
1.04546
1.07315
1.10116
1.12949
1.15813
1.18705
1.21624
1.2457
1.27539
1.30531
1.33543
1.36573
1.39619
1.42679
1.4575
1.48831
1.51917
1.55007
1.58098
1.61186
1.64268
1.67341
1.70401
1.73446
1.7647
1.79471
1.82445
1.85389
1.883
1.91176
1.94014
1.9681
1.9956
2.02261
2.04907
2.07495
2.1002
2.12478
2.14865
2.17176
2.19407
2.21553
2.2361
2.25573
2.27439
2.29204
2.30863
2.32413
2.3385
2.35172
2.36374
2.37455
2.38412
2.39242
2.39945
2.40519
2.40965
2.4127
2.41428
2.41483
2.41422
2.41222
2.40894
2.40442
2.3987
2.39181
2.38379
2.3747
2.36458
2.35349
2.34149
2.32865
2.31505
2.30077
2.28589
2.2705
2.25468
2.23851
2.22208
2.20546
2.18874
2.17199
2.15529
2.13873
2.12237
2.10629
2.09056
2.07525
2.06042
2.04613
2.03244
2.0194
2.00704
1.99542
1.98456
1.97448
1.96519
1.95671
1.94902
1.94217
1.9361
1.9308
1.92611
1.92194
1.91816
1.91459
1.91104
1.90733
1.9033
1.8988
1.8936
1.88794
1.87981
1.86112
0.0203846
0.0492822
0.0648395
0.0762994
0.0862426
0.0955929
0.104776
0.113989
0.123308
0.132735
0.142239
0.151778
0.161316
0.17083
0.180311
0.189765
0.199213
0.208691
0.218252
0.22797
0.237945
0.248298
0.259155
0.270626
0.282758
0.295505
0.308747
0.32238
0.336402
0.35093
0.366104
0.381976
0.398557
0.415732
0.43348
0.451745
0.470414
0.489433
0.508804
0.528577
0.548767
0.569384
0.590429
0.611903
0.63381
0.656151
0.67893
0.702148
0.725808
0.749913
0.774465
0.799466
0.824919
0.850824
0.877182
0.903994
0.931258
0.958975
0.98714
1.01575
1.04481
1.0743
1.10423
1.13458
1.16535
1.19653
1.22811
1.26008
1.29242
1.32513
1.35819
1.39157
1.42527
1.45927
1.49354
1.52807
1.56283
1.59781
1.63297
1.66828
1.70373
1.73929
1.77492
1.81059
1.84628
1.88194
1.91756
1.95308
1.98847
2.02371
2.05876
2.09357
2.1281
2.16233
2.19621
2.2297
2.26276
2.29534
2.3274
2.35888
2.38974
2.41993
2.4494
2.4781
2.50598
2.53299
2.55908
2.58419
2.60828
2.6313
2.6532
2.67393
2.69345
2.7117
2.72866
2.74428
2.75853
2.77137
2.78278
2.79273
2.8012
2.80817
2.81365
2.81762
2.81989
2.82073
2.82026
2.81824
2.81473
2.80977
2.8034
2.79567
2.78662
2.77629
2.76476
2.75208
2.73832
2.72357
2.7079
2.6914
2.67418
2.65632
2.63791
2.61906
2.59985
2.58038
2.56074
2.54101
2.5213
2.50168
2.48224
2.46307
2.44424
2.42583
2.40792
2.39057
2.37384
2.3578
2.34249
2.32796
2.31423
2.30132
2.28925
2.27802
2.2676
2.25799
2.24915
2.24103
2.23352
2.2265
2.21983
2.21336
2.2069
2.20029
2.19341
2.18618
2.17855
2.17085
2.16168
2.14607
0.0271274
0.0610291
0.0789948
0.0920499
0.103172
0.113432
0.123342
0.133166
0.143035
0.153001
0.163077
0.173252
0.183513
0.193853
0.204276
0.214798
0.225448
0.236268
0.247312
0.258646
0.270347
0.2825
0.295185
0.308464
0.322364
0.33687
0.35194
0.367536
0.38365
0.400317
0.417582
0.435477
0.453994
0.473095
0.492748
0.512915
0.533556
0.554635
0.576147
0.598104
0.620517
0.643396
0.666745
0.690569
0.714873
0.739661
0.764937
0.790705
0.816969
0.843733
0.871
0.898773
0.927054
0.955847
0.985152
1.01497
1.0453
1.07615
1.1075
1.13936
1.17173
1.2046
1.23796
1.27181
1.30614
1.34094
1.3762
1.41191
1.44805
1.48461
1.52157
1.55892
1.59664
1.6347
1.67308
1.71176
1.75072
1.78993
1.82936
1.86898
1.90876
1.94867
1.98868
2.02876
2.06886
2.10896
2.14901
2.18898
2.22883
2.26852
2.30801
2.34725
2.38621
2.42483
2.46306
2.50087
2.53819
2.57499
2.6112
2.64677
2.68166
2.7158
2.74914
2.78162
2.8132
2.8438
2.87338
2.90188
2.92924
2.95541
2.98034
3.00396
3.02624
3.04711
3.06654
3.08447
3.10088
3.11571
3.12894
3.14053
3.15047
3.15873
3.16532
3.17022
3.17331
3.17461
3.17445
3.17256
3.169
3.1638
3.157
3.14864
3.13877
3.12744
3.11473
3.10069
3.08541
3.06896
3.05145
3.03296
3.01359
2.99345
2.97263
2.95125
2.9294
2.90719
2.88471
2.86207
2.83937
2.8167
2.79415
2.77182
2.74979
2.72816
2.70699
2.68637
2.66636
2.64703
2.62843
2.6106
2.59357
2.57738
2.56204
2.54753
2.53384
2.52096
2.50883
2.4974
2.48659
2.47626
2.4663
2.45657
2.44691
2.43719
2.42734
2.41733
2.40723
2.39744
2.38689
2.37218
0.0334258
0.071564
0.0916901
0.106217
0.118442
0.129557
0.140149
0.150535
0.160893
0.171321
0.181868
0.192556
0.203396
0.214398
0.225577
0.236955
0.248565
0.260448
0.272652
0.285232
0.298246
0.311753
0.325806
0.340446
0.355694
0.371554
0.388014
0.405059
0.422683
0.440892
0.459696
0.479104
0.499106
0.519689
0.540833
0.562517
0.584722
0.607432
0.630639
0.654346
0.678559
0.703285
0.728529
0.754297
0.780596
0.807431
0.834808
0.862732
0.89121
0.920247
0.949846
0.980013
1.01075
1.04206
1.07396
1.10643
1.13948
1.17311
1.20732
1.24211
1.27748
1.31341
1.34992
1.38698
1.42459
1.46274
1.50142
1.54062
1.58032
1.6205
1.66116
1.70226
1.74379
1.78572
1.82804
1.87071
1.9137
1.95699
2.00055
2.04434
2.08832
2.13247
2.17675
2.22112
2.26553
2.30996
2.35435
2.39866
2.44286
2.48689
2.53071
2.57427
2.61752
2.6604
2.70286
2.74484
2.78631
2.82719
2.86743
2.90698
2.94577
2.98374
3.02084
3.05701
3.09218
3.12629
3.15928
3.19109
3.22166
3.25093
3.27884
3.30533
3.33034
3.35382
3.37572
3.39599
3.41457
3.43144
3.44654
3.45985
3.47133
3.48098
3.48876
3.49469
3.49869
3.50064
3.50091
3.4993
3.49582
3.49052
3.48342
3.47457
3.46403
3.45183
3.43807
3.42279
3.4061
3.38806
3.36879
3.34837
3.32692
3.30454
3.28133
3.25742
3.23291
3.2079
3.18253
3.15687
3.13106
3.10518
3.07935
3.05365
3.02819
3.00305
2.97833
2.95409
2.93043
2.9074
2.88506
2.86347
2.84266
2.82267
2.80351
2.78518
2.76768
2.75098
2.73504
2.71982
2.70522
2.69117
2.67755
2.66424
2.65113
2.63811
2.62515
2.61229
2.59966
2.58765
2.57536
2.56029
0.0391213
0.0807813
0.102786
0.118624
0.131849
0.143753
0.154977
0.165881
0.176681
0.187509
0.198448
0.209548
0.220843
0.232359
0.244122
0.25616
0.268508
0.281204
0.29429
0.307812
0.321813
0.336337
0.351422
0.367095
0.383377
0.400276
0.417792
0.43592
0.454656
0.473998
0.493947
0.514501
0.535655
0.557402
0.579733
0.602637
0.626106
0.650133
0.674713
0.699848
0.725543
0.751801
0.778631
0.80604
0.834034
0.862622
0.89181
0.921606
0.952018
0.983052
1.01471
1.04701
1.07995
1.11354
1.14777
1.18266
1.21821
1.25441
1.29127
1.32879
1.36697
1.40579
1.44526
1.48538
1.52612
1.56749
1.60946
1.65203
1.69518
1.73889
1.78314
1.82792
1.87319
1.91893
1.96512
2.01172
2.05871
2.10604
2.15369
2.20162
2.24979
2.29815
2.34668
2.39532
2.44403
2.49277
2.54148
2.59012
2.63864
2.68699
2.73511
2.78295
2.83045
2.87755
2.92419
2.97032
3.01587
3.0608
3.10502
3.14849
3.19114
3.2329
3.27371
3.31351
3.35222
3.3898
3.42616
3.46125
3.495
3.52734
3.55821
3.58755
3.6153
3.64139
3.66577
3.68839
3.70919
3.72812
3.74515
3.76023
3.77332
3.78441
3.79347
3.8005
3.80547
3.80823
3.80903
3.80779
3.80451
3.79921
3.79192
3.78268
3.77155
3.75858
3.74384
3.72741
3.70936
3.68979
3.66879
3.64647
3.62294
3.59831
3.57269
3.54619
3.51895
3.49107
3.46267
3.43387
3.40477
3.3755
3.34616
3.31685
3.28767
3.25872
3.2301
3.2019
3.17418
3.14704
3.12053
3.09471
3.06964
3.04536
3.02188
2.99923
2.97741
2.9564
2.93617
2.9167
2.89792
2.87977
2.86216
2.84501
2.82822
2.81174
2.79557
2.77978
2.76453
2.75018
2.73591
2.71977
0.0441008
0.0886196
0.112206
0.129163
0.143259
0.155865
0.16766
0.179036
0.190233
0.201414
0.212684
0.224119
0.235771
0.247682
0.259888
0.272424
0.285324
0.298626
0.312366
0.326582
0.341309
0.35658
0.372425
0.388864
0.405915
0.423587
0.441885
0.46081
0.48036
0.500535
0.521333
0.542752
0.56479
0.587444
0.610712
0.634589
0.659073
0.684164
0.70986
0.736165
0.763085
0.790625
0.818794
0.8476
0.877052
0.90716
0.937932
0.96938
1.00151
1.03433
1.06786
1.1021
1.13705
1.17273
1.20914
1.24629
1.28417
1.3228
1.36218
1.4023
1.44317
1.48478
1.52712
1.5702
1.61399
1.6585
1.70371
1.74959
1.79614
1.84334
1.89117
1.93959
1.98859
2.03813
2.08818
2.13872
2.1897
2.24108
2.29284
2.34492
2.39728
2.44988
2.50267
2.5556
2.60861
2.66167
2.7147
2.76767
2.82051
2.87316
2.92557
2.97767
3.02939
3.08068
3.13148
3.18171
3.23131
3.28022
3.32838
3.37571
3.42216
3.46764
3.5121
3.55546
3.59766
3.63863
3.6783
3.71659
3.75345
3.78881
3.82259
3.85473
3.88517
3.91383
3.94067
3.96561
3.98861
4.00961
4.02856
4.04542
4.06015
4.07272
4.0831
4.09128
4.09724
4.10088
4.10229
4.10151
4.09851
4.09328
4.08587
4.07631
4.06467
4.05099
4.03534
4.0178
3.99844
3.97737
3.95468
3.93048
3.90487
3.87797
3.8499
3.82078
3.79073
3.75989
3.72836
3.69627
3.66374
3.63089
3.59783
3.56467
3.53151
3.49848
3.46565
3.43314
3.40102
3.36939
3.33831
3.30786
3.27811
3.24909
3.22086
3.19345
3.16686
3.14112
3.11621
3.09211
3.06881
3.04625
3.02439
3.00317
2.98254
2.96248
2.94301
2.92423
2.90631
2.88956
2.87317
2.85558
0.0482957
0.0950652
0.119931
0.137809
0.152635
0.165841
0.178134
0.189926
0.201477
0.212965
0.224518
0.236228
0.248161
0.260374
0.27291
0.28581
0.29911
0.312845
0.32705
0.341757
0.356995
0.372791
0.389169
0.406147
0.42374
0.441959
0.460811
0.480299
0.500427
0.521196
0.542607
0.564661
0.58736
0.610704
0.634693
0.659331
0.684619
0.710561
0.73716
0.764423
0.792358
0.820972
0.850277
0.880282
0.910999
0.942441
0.974617
1.00754
1.04122
1.07568
1.11092
1.14694
1.18378
1.22142
1.25989
1.29918
1.3393
1.38027
1.42208
1.46472
1.50822
1.55255
1.59771
1.64371
1.69052
1.73814
1.78656
1.83575
1.8857
1.93638
1.98778
2.03986
2.09259
2.14594
2.19989
2.25437
2.30937
2.36483
2.42071
2.47696
2.53354
2.59038
2.64744
2.70466
2.76199
2.81935
2.87671
2.93398
2.99111
3.04804
3.10469
3.161
3.2169
3.27233
3.3272
3.38146
3.43503
3.48784
3.53983
3.59093
3.64105
3.69014
3.73813
3.78493
3.83048
3.87471
3.91755
3.95892
3.99876
4.037
4.07357
4.10839
4.1414
4.17253
4.20172
4.22891
4.25403
4.27702
4.29784
4.31644
4.33277
4.34679
4.35848
4.36781
4.37476
4.37928
4.38137
4.3811
4.37842
4.37332
4.36584
4.35602
4.34392
4.32958
4.31308
4.29448
4.27388
4.25135
4.227
4.20093
4.17326
4.1441
4.11357
4.0818
4.04892
4.01504
3.9803
3.94483
3.90875
3.87217
3.83523
3.79804
3.76071
3.72335
3.68607
3.64898
3.61217
3.57575
3.53978
3.50437
3.46958
3.43549
3.40215
3.36961
3.33792
3.3071
3.27717
3.24815
3.22005
3.19284
3.16653
3.14108
3.11648
3.09275
3.06992
3.04812
3.02751
3.00832
2.98977
2.97057
0.0516751
0.10015
0.126009
0.144613
0.160024
0.173722
0.186432
0.198576
0.21043
0.222182
0.233972
0.245904
0.258056
0.270493
0.283266
0.29642
0.309993
0.324019
0.338531
0.353559
0.369128
0.385264
0.401985
0.41931
0.437252
0.455824
0.475035
0.494893
0.515402
0.53657
0.5584
0.580898
0.604067
0.627914
0.652443
0.677661
0.703574
0.730189
0.757515
0.785562
0.81434
0.843861
0.874138
0.905186
0.937017
0.969647
1.00309
1.03736
1.07247
1.10844
1.14528
1.18301
1.22163
1.26115
1.3016
1.34297
1.38528
1.42853
1.47272
1.51787
1.56396
1.61099
1.65897
1.70788
1.75771
1.80845
1.86009
1.9126
1.96597
2.02016
2.07515
2.13091
2.18741
2.2446
2.30245
2.36092
2.41995
2.4795
2.53951
2.59994
2.66072
2.7218
2.78312
2.84461
2.90621
2.96785
3.02947
3.09098
3.15234
3.21345
3.27426
3.33468
3.39465
3.45408
3.5129
3.57103
3.62842
3.68497
3.74062
3.79529
3.84891
3.90141
3.95271
4.00274
4.05143
4.09871
4.1445
4.18873
4.23133
4.27224
4.31137
4.34867
4.38406
4.41747
4.44883
4.47809
4.50517
4.53002
4.55258
4.5728
4.59062
4.60602
4.61895
4.62938
4.63729
4.64265
4.64544
4.64567
4.64336
4.63841
4.63089
4.62084
4.60832
4.59338
4.57608
4.55649
4.53469
4.51076
4.48481
4.45693
4.42724
4.39585
4.36289
4.32848
4.29275
4.25584
4.21786
4.17896
4.13926
4.09888
4.05796
4.01662
3.97497
3.93315
3.89125
3.8494
3.8077
3.76626
3.72518
3.68456
3.6445
3.60507
3.56635
3.52843
3.49137
3.45523
3.42006
3.3859
3.35279
3.32076
3.28985
3.26005
3.23141
3.20394
3.17774
3.15291
3.12959
3.108
3.08731
3.06657
0.0542445
0.103946
0.130537
0.149684
0.165542
0.179621
0.19266
0.205089
0.217188
0.229154
0.241132
0.253235
0.265547
0.27814
0.291069
0.304383
0.318121
0.332319
0.347008
0.362217
0.37797
0.39429
0.411196
0.428706
0.446835
0.465597
0.485004
0.505068
0.525797
0.547202
0.56929
0.592072
0.615557
0.639753
0.664672
0.690323
0.716717
0.743866
0.77178
0.800476
0.829968
0.860272
0.891404
0.923382
0.956223
0.989944
1.02456
1.0601
1.09657
1.13399
1.17238
1.21175
1.25212
1.2935
1.3359
1.37934
1.42383
1.46936
1.51596
1.56361
1.61232
1.66209
1.7129
1.76476
1.81765
1.87155
1.92645
1.98232
2.03914
2.09688
2.15551
2.21498
2.27527
2.33632
2.39809
2.46054
2.5236
2.58723
2.65136
2.71593
2.78089
2.84615
2.91166
2.97734
3.04312
3.10892
3.17468
3.24031
3.30574
3.37089
3.43567
3.50002
3.56384
3.62706
3.6896
3.75138
3.81232
3.87235
3.93138
3.98935
4.04617
4.10178
4.15609
4.20904
4.26054
4.31054
4.35895
4.40572
4.45076
4.49402
4.53541
4.57488
4.61234
4.64774
4.68101
4.71208
4.74088
4.76736
4.79145
4.81309
4.83225
4.84887
4.86292
4.87435
4.88314
4.88926
4.89269
4.89341
4.89148
4.88668
4.87913
4.86889
4.856
4.84051
4.82247
4.80195
4.77902
4.75377
4.72629
4.69668
4.66505
4.63151
4.59618
4.55919
4.52067
4.48076
4.43957
4.39726
4.35395
4.30977
4.26485
4.21933
4.17332
4.12696
4.08037
4.03366
3.98697
3.94041
3.89409
3.84813
3.80263
3.75771
3.71347
3.67001
3.62742
3.5858
3.54523
3.50579
3.46755
3.4306
3.39499
3.36078
3.32804
3.29683
3.26724
3.2394
3.21342
3.18947
3.16674
3.14454
0.0560446
0.106567
0.133651
0.153174
0.169345
0.183699
0.196977
0.209615
0.221896
0.234019
0.246133
0.258352
0.270769
0.283457
0.296473
0.309868
0.323682
0.337951
0.352707
0.367979
0.38379
0.400164
0.417122
0.434683
0.452865
0.471684
0.491157
0.511297
0.532118
0.553634
0.575859
0.598806
0.62249
0.646923
0.672122
0.6981
0.724874
0.752459
0.780873
0.810135
0.840263
0.871279
0.903204
0.936059
0.969864
1.00464
1.04041
1.0772
1.11502
1.15389
1.19384
1.23488
1.27703
1.3203
1.36471
1.41027
1.45699
1.50488
1.55394
1.60417
1.65558
1.70815
1.76189
1.81678
1.8728
1.92993
1.98816
2.04745
2.10778
2.16911
2.23141
2.29462
2.35871
2.42362
2.48931
2.55571
2.62276
2.69041
2.75858
2.8272
2.89621
2.96553
3.03508
3.10478
3.17456
3.24433
3.31401
3.38351
3.45276
3.52166
3.59014
3.6581
3.72546
3.79214
3.85805
3.92311
3.98723
4.05035
4.11237
4.17322
4.23283
4.29111
4.348
4.40342
4.45731
4.50958
4.56018
4.60904
4.65609
4.70126
4.74449
4.78571
4.82486
4.86186
4.89666
4.92918
4.95937
4.98716
5.01249
5.03531
5.05556
5.07319
5.08815
5.10042
5.10996
5.11674
5.12073
5.1219
5.12031
5.11569
5.10811
5.09769
5.08446
5.06847
5.04977
5.0284
5.00444
4.97797
4.94906
4.91783
4.88437
4.84879
4.81121
4.77175
4.73055
4.68774
4.64345
4.59782
4.55098
4.50307
4.45422
4.40456
4.35424
4.30338
4.25211
4.20056
4.14888
4.09718
4.04559
3.99426
3.9433
3.89284
3.84302
3.79396
3.74579
3.69862
3.6526
3.60782
3.56442
3.5225
3.48217
3.44354
3.4067
3.37176
3.33882
3.30801
3.27942
3.2532
3.22856
3.20507
0.0571521
0.108142
0.135503
0.155252
0.171616
0.18614
0.199569
0.212339
0.224733
0.236953
0.249148
0.261433
0.273898
0.286618
0.299652
0.313052
0.326859
0.341112
0.355842
0.371079
0.386849
0.403177
0.420086
0.437598
0.455734
0.474514
0.493959
0.514089
0.534925
0.556468
0.578751
0.601795
0.625615
0.650229
0.675656
0.701914
0.729024
0.757009
0.785894
0.815704
0.846464
0.878198
0.910932
0.944692
0.979503
1.01539
1.05237
1.09048
1.12974
1.17016
1.21177
1.2546
1.29864
1.34394
1.39049
1.43831
1.48741
1.53779
1.58947
1.64243
1.69668
1.7522
1.80899
1.86703
1.92629
1.98676
2.04841
2.1112
2.17509
2.24005
2.30604
2.37299
2.44086
2.50959
2.57911
2.64937
2.7203
2.79182
2.86386
2.93634
3.00919
3.08232
3.15564
3.22908
3.30253
3.37593
3.44917
3.52216
3.59482
3.66706
3.73878
3.8099
3.88032
3.94997
4.01874
4.08655
4.15333
4.21899
4.28344
4.34662
4.40845
4.46884
4.52774
4.58506
4.64075
4.69473
4.74695
4.79733
4.84583
4.89237
4.93689
4.97935
5.01966
5.05778
5.09364
5.12718
5.15833
5.18704
5.21325
5.23689
5.25793
5.2763
5.29195
5.30486
5.31497
5.32226
5.32669
5.32825
5.32696
5.3225
5.31488
5.30431
5.29079
5.27437
5.25507
5.23296
5.20808
5.18051
5.15033
5.11762
5.08248
5.04503
5.00536
4.96361
4.91991
4.87437
4.82714
4.77836
4.72815
4.67666
4.62402
4.57038
4.51587
4.46063
4.40481
4.34853
4.29195
4.2352
4.17844
4.1218
4.06545
4.00951
3.95417
3.89955
3.84584
3.79317
3.74172
3.69165
3.64311
3.59626
3.55125
3.50823
3.46735
3.42873
3.39251
3.35881
3.32772
3.29936
3.27297
3.2484
0.0575428
0.108703
0.136219
0.156082
0.172537
0.187138
0.200636
0.213464
0.225906
0.238159
0.250371
0.262656
0.275107
0.287797
0.300786
0.314126
0.327861
0.342028
0.356663
0.371795
0.387455
0.403669
0.420464
0.437866
0.4559
0.474592
0.493967
0.514052
0.534877
0.556427
0.57877
0.601916
0.625887
0.650705
0.67639
0.702957
0.730442
0.758882
0.788308
0.818751
0.850242
0.882812
0.91649
0.951304
0.987284
1.02446
1.06285
1.10249
1.1434
1.1856
1.22912
1.27397
1.32017
1.36775
1.4167
1.46704
1.51877
1.57191
1.62644
1.68237
1.73967
1.79835
1.85837
1.91973
1.98238
2.0463
2.11146
2.17781
2.2453
2.31389
2.38353
2.45415
2.52569
2.5981
2.67129
2.7452
2.81975
2.89486
2.97045
3.04644
3.12274
3.19925
3.2759
3.35259
3.42922
3.5057
3.58194
3.65784
3.73331
3.80825
3.88258
3.95619
4.029
4.10092
4.17185
4.24171
4.31042
4.37789
4.44406
4.50883
4.57214
4.63391
4.69408
4.75258
4.80934
4.86431
4.91744
4.96866
5.01792
5.06516
5.11034
5.1534
5.19428
5.23293
5.2693
5.30332
5.33494
5.3641
5.39075
5.41483
5.43629
5.45508
5.47114
5.48443
5.49491
5.50253
5.50728
5.50914
5.50809
5.5038
5.49614
5.48543
5.47168
5.4549
5.43512
5.41238
5.38673
5.35823
5.32695
5.29296
5.25636
5.21724
5.17572
5.13191
5.08593
5.03791
4.98798
4.93628
4.88294
4.82812
4.77193
4.71453
4.65606
4.59667
4.53649
4.47569
4.41441
4.35281
4.29106
4.2293
4.16772
4.10647
4.04575
3.98574
3.92662
3.86859
3.81185
3.7566
3.70304
3.65137
3.6018
3.5545
3.50965
3.46737
3.42788
3.39134
3.35783
3.32745
3.29949
3.27412
0.0574344
0.108537
0.136024
0.155876
0.172323
0.186916
0.200401
0.213211
0.225627
0.237848
0.250021
0.262258
0.274652
0.287273
0.300184
0.313436
0.327072
0.341133
0.355655
0.37067
0.386212
0.40231
0.418996
0.4363
0.454251
0.472876
0.492208
0.512277
0.533115
0.554751
0.577214
0.600533
0.624736
0.649856
0.675929
0.702955
0.730997
0.760093
0.790284
0.821608
0.854099
0.887798
0.922739
0.95895
0.996458
1.03529
1.07549
1.11706
1.16005
1.20447
1.25033
1.29765
1.34645
1.39673
1.44851
1.50178
1.55655
1.61281
1.67055
1.72976
1.79042
1.8525
1.91599
1.98083
2.04701
2.11447
2.18317
2.25306
2.32409
2.3962
2.46932
2.54339
2.61834
2.69409
2.77058
2.84771
2.92542
3.0036
3.08218
3.16107
3.24017
3.3194
3.39865
3.47784
3.55687
3.63563
3.71404
3.79199
3.8694
3.94616
4.02218
4.09737
4.17164
4.2449
4.31706
4.38802
4.45772
4.52608
4.59301
4.65844
4.72232
4.78455
4.8451
4.90388
4.96085
5.01595
5.06915
5.12038
5.16961
5.21678
5.26186
5.30481
5.34556
5.38408
5.42032
5.45423
5.48576
5.51485
5.54146
5.56554
5.58703
5.60588
5.62203
5.63544
5.64605
5.65383
5.65876
5.66083
5.65998
5.65584
5.64817
5.63738
5.62347
5.60645
5.58632
5.56312
5.53689
5.50766
5.47551
5.44049
5.40268
5.36218
5.31909
5.27351
5.22556
5.17536
5.12305
5.06876
5.01262
4.95477
4.89535
4.83451
4.7724
4.70915
4.64494
4.57991
4.51423
4.44807
4.3816
4.315
4.24846
4.18217
4.11633
4.05116
3.98688
3.92372
3.86191
3.80158
3.74306
3.68663
3.63252
3.581
3.53227
3.48667
3.44428
3.40523
3.3696
3.33751
3.30825
3.28238
0.0570406
0.107913
0.135191
0.154915
0.17125
0.185735
0.199115
0.211821
0.224132
0.236245
0.248305
0.260425
0.272693
0.285183
0.297955
0.311061
0.324549
0.338461
0.352837
0.367713
0.383128
0.399118
0.415721
0.432976
0.450925
0.469603
0.489045
0.50929
0.530378
0.55236
0.575254
0.599091
0.623909
0.649739
0.676597
0.704524
0.733607
0.7639
0.795443
0.828277
0.862437
0.897954
0.934858
0.973182
1.01296
1.05421
1.09698
1.1413
1.18718
1.23462
1.28362
1.33421
1.38637
1.44011
1.49543
1.5523
1.61073
1.67069
1.73216
1.7951
1.8595
1.9253
1.99248
2.06099
2.13077
2.20177
2.27395
2.34723
2.42156
2.49687
2.57308
2.65014
2.72795
2.80645
2.88555
2.96517
3.04523
3.12563
3.2063
3.28713
3.36804
3.44893
3.52971
3.61029
3.69056
3.77044
3.84983
3.92864
4.00676
4.08411
4.16059
4.23613
4.31061
4.38397
4.45612
4.52697
4.59644
4.66447
4.73098
4.79591
4.85919
4.92077
4.98057
5.03855
5.09467
5.14888
5.20115
5.25143
5.29969
5.34589
5.39001
5.432
5.47183
5.50947
5.54488
5.578
5.6088
5.63724
5.66328
5.68686
5.70794
5.72646
5.74236
5.75559
5.76609
5.77384
5.7788
5.781
5.78029
5.77632
5.76866
5.75786
5.74388
5.72673
5.70641
5.68293
5.65631
5.6266
5.59382
5.55804
5.51932
5.47773
5.43338
5.38635
5.33676
5.28472
5.23036
5.17382
5.11521
5.05469
4.99239
4.92845
4.86303
4.79628
4.72836
4.65944
4.58969
4.51929
4.44844
4.37731
4.30608
4.23494
4.16417
4.09401
4.02472
3.95658
3.88987
3.82498
3.76206
3.70142
3.64333
3.58812
3.53609
3.48734
3.44216
3.40074
3.36316
3.32954
3.2992
3.27314
0.0561325
0.106548
0.13349
0.152971
0.169089
0.183374
0.196566
0.209096
0.221246
0.23321
0.245133
0.257125
0.269273
0.281652
0.294323
0.307344
0.320765
0.334634
0.348999
0.363905
0.379396
0.395516
0.412313
0.42984
0.448161
0.4673
0.487296
0.5082
0.530051
0.552872
0.576679
0.601561
0.627583
0.654805
0.683301
0.713112
0.744289
0.776882
0.810933
0.846479
0.883552
0.92218
0.962385
1.00419
1.04761
1.09267
1.13936
1.18771
1.23769
1.2893
1.34253
1.39738
1.45382
1.51184
1.5714
1.63248
1.69505
1.75907
1.82449
1.89129
1.9594
2.02878
2.09937