/*--------------------------------*- C++ -*----------------------------------*\
  =========                 |
  \\      /  F ield         | OpenFOAM: The Open Source CFD Toolbox
   \\    /   O peration     | Website:  https://openfoam.org
    \\  /    A nd           | Version:  8
     \\/     M anipulation  |
\*---------------------------------------------------------------------------*/
/*   Windows 32 and 64 bit porting by blueCAPE: http://www.bluecape.com.pt   *\
|  Based on Windows porting (2.0.x v4) by Symscape: http://www.symscape.com   |
\*---------------------------------------------------------------------------*/
FoamFile
{
    version     2.0;
    format      ascii;
    class       volScalarField;
    location    "200";
    object      nut;
}
// * * * * * * * * * * * * * * * * * * * * * * * * * * * * * * * * * * * * * //

dimensions      [0 2 -1 0 0 0 0];

internalField   nonuniform List<scalar> 
12225
(
4.14924e-05
3.93409e-05
3.74829e-05
3.54331e-05
3.37838e-05
3.24212e-05
3.15092e-05
3.09117e-05
3.09182e-05
3.10934e-05
3.15732e-05
3.20986e-05
3.31532e-05
3.38275e-05
3.50699e-05
3.58188e-05
3.68826e-05
3.86362e-05
0.000332215
0.000215176
0.00017927
0.000157677
0.000146209
0.000138208
0.000132729
0.000131668
0.000129492
0.000130081
0.000129031
0.000129456
0.000128644
0.000128576
0.00012807
0.000127414
0.00012748
0.000125996
0.000668679
0.00045066
0.000355752
0.000309835
0.000275276
0.000251102
0.0002317
0.000217281
0.000202656
0.000192136
0.000182598
0.000175213
0.000169353
0.00016368
0.000160275
0.000155548
0.00015381
0.000149728
0.000801681
0.000691666
0.000572543
0.000500062
0.000449371
0.000411994
0.000380761
0.000356013
0.000333987
0.000314783
0.000298354
0.000281623
0.000270319
0.000256051
0.000248188
0.000236092
0.00023051
0.000220316
0.000839623
0.00081019
0.000740696
0.000676421
0.00062392
0.000581393
0.000545854
0.000514563
0.000489502
0.000464428
0.000445852
0.000424051
0.000409919
0.00039078
0.000379871
0.000362986
0.000354754
0.000339294
0.000850344
0.000843278
0.000819553
0.000786529
0.000750765
0.000715889
0.000685747
0.000656132
0.000632539
0.000607512
0.000588987
0.000567233
0.000552266
0.000533073
0.00052077
0.000503616
0.000493642
0.000477253
0.000851579
0.000851019
0.000843299
0.000833478
0.000817108
0.000796952
0.000777867
0.000756734
0.000738895
0.000719141
0.000703526
0.00068561
0.00067211
0.000655902
0.000644298
0.000629431
0.000619828
0.000604943
0.000851581
0.000851816
0.000850038
0.000847462
0.0008414
0.00083375
0.000824822
0.000813432
0.000802808
0.000790467
0.00077971
0.000767532
0.000757417
0.000745767
0.000736539
0.000725441
0.000717467
0.000705845
0.000851673
0.000851531
0.000851015
0.000850343
0.000848875
0.00084617
0.000843026
0.000838304
0.000833402
0.000827359
0.000821215
0.000814765
0.000808427
0.000801496
0.000795287
0.00078831
0.000782509
0.000774924
0.000851754
0.000851386
0.000851043
0.000850633
0.000850247
0.000849368
0.000848404
0.00084678
0.000844955
0.000842529
0.000839922
0.000836797
0.000833793
0.000830147
0.00082697
0.00082291
0.000819917
0.000815276
0.000851784
0.000851358
0.000851012
0.000850613
0.000850329
0.000849905
0.000849525
0.000848928
0.000848303
0.000847393
0.000846465
0.000845176
0.000843989
0.000842349
0.000840994
0.000839028
0.000837637
0.000835357
0.000851788
0.000851359
0.000850996
0.000850605
0.000850292
0.000849938
0.000849646
0.00084928
0.000848955
0.000848504
0.000848098
0.000847507
0.000846997
0.000846243
0.00084564
0.000844719
0.000844056
0.000842974
0.000851786
0.000851363
0.000850986
0.000850604
0.000850269
0.000849926
0.00084963
0.000849313
0.000849042
0.000848728
0.000848462
0.000848126
0.000847843
0.000847465
0.000847156
0.000846725
0.000846386
0.000845901
0.000851783
0.000851364
0.000850978
0.000850602
0.000850256
0.000849916
0.000849607
0.0008493
0.000849022
0.00084874
0.000848488
0.000848224
0.000847988
0.000847734
0.000847508
0.000847257
0.000847033
0.000846783
0.000851781
0.000851364
0.000850973
0.000850598
0.000850246
0.000849908
0.000849591
0.000849286
0.000849
0.000848723
0.000848463
0.000848211
0.000847975
0.000847745
0.000847528
0.000847316
0.000847115
0.000846919
0.00085178
0.000851363
0.000850969
0.000850594
0.000850239
0.000849901
0.00084958
0.000849275
0.000848984
0.000848707
0.000848443
0.000848191
0.000847951
0.000847721
0.000847502
0.000847293
0.000847093
0.000846901
0.000851779
0.000851362
0.000850967
0.000850591
0.000850234
0.000849895
0.000849572
0.000849265
0.000848973
0.000848694
0.000848428
0.000848175
0.000847933
0.000847701
0.00084748
0.000847269
0.000847067
0.000846874
0.000851779
0.000851362
0.000850965
0.000850588
0.000850231
0.00084989
0.000849567
0.000849259
0.000848965
0.000848685
0.000848418
0.000848163
0.00084792
0.000847687
0.000847465
0.000847252
0.000847049
0.000846854
0.000851779
0.000851362
0.000850965
0.000850588
0.00085023
0.000849889
0.000849565
0.000849256
0.000848962
0.000848681
0.000848414
0.000848158
0.000847914
0.00084768
0.000847457
0.000847243
0.000847039
0.000846844
0.000851779
0.000851362
0.000850966
0.000850589
0.000850231
0.000849891
0.000849567
0.000849259
0.000848965
0.000848685
0.000848417
0.000848162
0.000847917
0.000847684
0.00084746
0.000847246
0.000847041
0.000846845
0.000851779
0.000851363
0.000850967
0.000850592
0.000850235
0.000849897
0.000849573
0.000849267
0.000848972
0.000848694
0.000848424
0.000848169
0.00084792
0.000847683
0.000847451
0.000847231
0.000847013
0.000846806
0.000851778
0.000851366
0.000850968
0.000850599
0.00085024
0.000849907
0.00084958
0.000849274
0.000848964
0.000848671
0.000848365
0.000848072
0.000847756
0.000847456
0.000847123
0.000846811
0.000846457
0.000846136
0.000851773
0.000851376
0.000850971
0.000850615
0.000850241
0.000849889
0.000849478
0.000849054
0.000848529
0.000847978
0.000847301
0.000846605
0.000845767
0.000844939
0.000843955
0.000843029
0.000841918
0.00084094
0.000851768
0.000851415
0.000850964
0.000850548
0.000849861
0.000848966
0.00084761
0.000845976
0.000843905
0.000841636
0.000838955
0.000836214
0.000833117
0.000830114
0.000826763
0.00082368
0.000820184
0.000817178
0.000851859
0.00085138
0.000850196
0.000848243
0.00084447
0.000839354
0.000832765
0.000825658
0.000817962
0.000810011
0.000801618
0.000793628
0.000785332
0.000777707
0.000769744
0.000762701
0.000755124
0.000748795
0.000852108
0.000847667
0.000839902
0.000827146
0.000808707
0.000789646
0.000769975
0.000751413
0.000733305
0.000716896
0.000700934
0.000686781
0.00067283
0.000660671
0.000648379
0.000637942
0.000626955
0.000618021
0.000843241
0.000822506
0.000775185
0.000726459
0.000684894
0.000649852
0.000618461
0.00059202
0.000568382
0.000548312
0.000529689
0.000513991
0.000498752
0.000486017
0.000473203
0.000462709
0.000451624
0.000442807
0.000795685
0.000668241
0.000570627
0.000509905
0.000465605
0.000431184
0.000404146
0.000382481
0.0003642
0.00034907
0.000335942
0.000325063
0.000314508
0.000306237
0.000297961
0.000291369
0.000284283
0.000278933
0.000501314
0.000348356
0.000292674
0.00025918
0.000236322
0.000221177
0.000211621
0.000203855
0.000198564
0.000195076
0.000192221
0.000190368
0.000188583
0.000187438
0.000186166
0.000185472
0.000184555
0.000184142
7.27384e-05
7.02255e-05
6.79541e-05
6.56137e-05
6.33828e-05
6.12762e-05
5.94944e-05
5.79551e-05
5.67109e-05
5.57031e-05
5.49776e-05
5.44178e-05
5.41096e-05
5.38809e-05
5.38975e-05
5.39326e-05
5.4091e-05
5.43239e-05
4.85836e-07
1.07749e-05
1.91711e-05
2.70903e-05
3.5451e-05
4.43597e-05
5.38889e-05
6.39999e-05
7.45226e-05
8.52569e-05
9.59832e-05
0.000106531
0.000116741
0.000126502
0.000135702
0.000144262
0.00015211
0.000159223
0.000165628
0.00017147
0.000177017
0.000182188
0.000186955
0.000196229
0.000206806
0.000219185
0.000230826
0.000238476
0.000236334
0.000231034
0.000219645
0.000210007
0.000202074
0.000182444
3.82895e-05
4.54706e-05
4.76762e-05
4.84455e-05
4.95811e-05
5.07454e-05
5.18522e-05
5.29983e-05
5.41159e-05
5.52462e-05
5.63655e-05
5.74861e-05
5.86016e-05
5.97153e-05
6.08255e-05
6.19334e-05
6.30382e-05
6.41407e-05
6.52402e-05
6.63375e-05
6.74318e-05
6.85238e-05
6.96126e-05
7.06989e-05
7.17817e-05
7.28616e-05
7.39374e-05
7.50098e-05
7.60777e-05
7.71415e-05
7.82e-05
7.92538e-05
8.03013e-05
8.13432e-05
8.23781e-05
8.34063e-05
8.44266e-05
8.54392e-05
8.64428e-05
8.74378e-05
8.84225e-05
8.93974e-05
9.0361e-05
9.13136e-05
9.22537e-05
9.31817e-05
9.40958e-05
9.49965e-05
9.5882e-05
9.67526e-05
9.76063e-05
9.84433e-05
9.92616e-05
0.000100061
0.00010084
0.000101597
0.000102331
0.000103041
0.000103725
0.000104385
0.000105025
0.000105647
0.000106245
0.00010682
0.000107372
0.0001079
0.000108404
0.000108882
0.000109334
0.00010976
0.000110159
0.00011053
0.000110873
0.000111188
0.000111473
0.000111728
0.000111953
0.000112147
0.00011231
0.000112441
0.00011254
0.000112607
0.000112641
0.000112642
0.000112612
0.000112552
0.000112447
0.000112311
0.000112145
0.000111933
0.000111692
0.000111435
0.000111147
0.000110815
0.000110454
0.000110061
0.000109638
0.000109185
0.000108703
0.000108193
0.000107656
0.000107092
0.000106499
0.000105884
0.000105247
0.000104591
0.000103918
0.000103229
0.000102527
0.000101814
0.00010109
0.000100359
9.96231e-05
9.88831e-05
9.81426e-05
9.74027e-05
9.66661e-05
9.5933e-05
9.52067e-05
9.44886e-05
9.37821e-05
9.30876e-05
9.24086e-05
9.17462e-05
9.11025e-05
9.0478e-05
8.98763e-05
8.9298e-05
8.87441e-05
8.82206e-05
8.77689e-05
8.7803e-05
8.76897e-05
8.74232e-05
8.72089e-05
8.70293e-05
8.68892e-05
8.67667e-05
8.66668e-05
8.65947e-05
8.65678e-05
8.65609e-05
8.64771e-05
8.6365e-05
8.61517e-05
8.48691e-05
2.08914e-06
3.89131e-05
8.1988e-05
0.00011164
0.00013148
0.000146638
0.000159846
0.000172458
0.000184996
0.000197552
0.000210017
0.000222214
0.000233961
0.000245091
0.00025546
0.000264949
0.000273474
0.000281008
0.000287611
0.000293479
0.000298986
0.000304377
0.000309443
0.000314675
0.000319998
0.000324915
0.000328381
0.000327096
0.000321343
0.000311607
0.000297276
0.000281536
0.000278507
0.000254925
0.000243268
0.000261491
0.000272447
0.000278588
0.000285593
0.000292783
0.000300458
0.000308148
0.000316021
0.000323976
0.000332034
0.00034017
0.000348386
0.000356672
0.000365031
0.000373459
0.000381961
0.000390535
0.000399186
0.000407912
0.00041672
0.000425608
0.00043458
0.000443637
0.000452783
0.000462015
0.000471338
0.000480749
0.000490251
0.000499842
0.000509525
0.000519295
0.000529154
0.000539097
0.000549126
0.000559235
0.000569425
0.00057969
0.00059003
0.000600438
0.000610915
0.000621452
0.000632049
0.000642698
0.000653399
0.000664145
0.000674934
0.00068576
0.000696622
0.000707513
0.000718432
0.000729372
0.000740328
0.000751291
0.000762249
0.00077318
0.000784048
0.000794784
0.000805272
0.00081533
0.000824652
0.000833791
0.000842819
0.000851734
0.000860526
0.000869188
0.000877709
0.000886081
0.000894292
0.000902331
0.000910189
0.000917853
0.000925313
0.000932558
0.000939575
0.000946354
0.000952882
0.000959149
0.000965141
0.000970851
0.000976263
0.00098137
0.00098616
0.000990625
0.000994757
0.000998559
0.00100206
0.00100531
0.00100817
0.00101039
0.00101212
0.00101387
0.00101536
0.00101634
0.00101694
0.00101718
0.00101706
0.00101658
0.00101577
0.00101461
0.00101313
0.00101134
0.00100924
0.00100686
0.0010042
0.00100128
0.00099812
0.000994741
0.000991167
0.000987416
0.000983514
0.000979479
0.00097534
0.000971116
0.000966835
0.000962514
0.000958178
0.000953844
0.000949541
0.000945289
0.000941116
0.000937037
0.000933081
0.000929265
0.000925612
0.000922133
0.000918848
0.000915763
0.000912885
0.000910216
0.000907736
0.000905324
0.00090087
0.000896411
0.000892113
0.000887899
0.000883889
0.000879783
0.00087555
0.000871205
0.000866855
0.00086232
0.000857202
0.000851007
0.000842175
0.00081765
4.15669e-06
6.09192e-05
0.000126122
0.000175853
0.000212157
0.000238945
0.000259763
0.000277126
0.000292604
0.000307054
0.000320858
0.000334124
0.000346816
0.000358834
0.000370063
0.000380399
0.000389769
0.000398151
0.000405589
0.000412202
0.000418155
0.000423904
0.000430426
0.00043808
0.00044666
0.000455644
0.000463927
0.000470689
0.000475696
0.000479314
0.000482663
0.000487028
0.000493674
0.000498971
0.000510644
0.000528369
0.000544441
0.000559769
0.000575301
0.00059092
0.000606776
0.000622771
0.00063893
0.000655227
0.000671662
0.000688228
0.000704924
0.000721749
0.000738705
0.000755793
0.000773018
0.000790382
0.00080789
0.000825544
0.000843347
0.000861302
0.000879411
0.000897675
0.000916096
0.000934674
0.000953408
0.000972299
0.000991344
0.00101054
0.00102989
0.00104938
0.00106902
0.00108879
0.00110869
0.00112872
0.00114887
0.00116913
0.0011895
0.00120997
0.00123052
0.00125116
0.00127186
0.00129263
0.00131345
0.00133432
0.00135521
0.00137613
0.00139706
0.00141798
0.00143889
0.00145977
0.0014806
0.00150135
0.001522
0.0015425
0.00156279
0.00158281
0.00160245
0.00162165
0.00164038
0.00165887
0.00167713
0.00169516
0.00171292
0.0017304
0.00174759
0.00176446
0.00178099
0.00179716
0.00181294
0.00182833
0.00184329
0.0018578
0.00187185
0.0018854
0.00189843
0.00191093
0.00192287
0.00193423
0.00194498
0.00195511
0.00196461
0.00197344
0.00198161
0.00198911
0.00199595
0.00200212
0.00200778
0.00201243
0.00201584
0.00201895
0.00202162
0.00202339
0.00202439
0.00202464
0.00202416
0.00202297
0.00202107
0.00201849
0.00201524
0.00201136
0.00200685
0.00200176
0.00199611
0.00198992
0.00198325
0.00197613
0.00196861
0.00196073
0.00195253
0.00194406
0.00193537
0.00192649
0.00191749
0.0019084
0.00189926
0.00189013
0.00188104
0.00187205
0.00186319
0.00185452
0.00184607
0.00183788
0.00182999
0.00182242
0.00181521
0.00180836
0.00180188
0.00179576
0.00178993
0.00178402
0.00177667
0.00176925
0.00176171
0.00175431
0.00174747
0.00174031
0.00173267
0.0017249
0.00171738
0.00170943
0.0017004
0.00168934
0.00167244
0.00163244
6.32779e-06
7.7564e-05
0.000159474
0.000223966
0.000272364
0.000308747
0.000336876
0.000359608
0.000378941
0.000396165
0.000412036
0.000426951
0.000441081
0.000454473
0.000467119
0.000478999
0.000490117
0.000500531
0.000510377
0.000519894
0.000529433
0.000539465
0.000550495
0.000562824
0.000576464
0.000591144
0.000606318
0.000621479
0.000636406
0.000651273
0.000666562
0.000682708
0.000699443
0.000718123
0.000739034
0.000761478
0.000783621
0.000805655
0.000827898
0.00085035
0.000872982
0.000895778
0.000918741
0.000941869
0.000965162
0.000988621
0.00101225
0.00103604
0.00106002
0.00108416
0.0011085
0.00113302
0.00115774
0.00118265
0.00120777
0.00123309
0.00125861
0.00128434
0.00131028
0.00133642
0.00136276
0.0013893
0.00141604
0.00144297
0.00147009
0.00149738
0.00152485
0.00155249
0.00158028
0.00160821
0.00163629
0.00166449
0.0016928
0.00172122
0.00174973
0.00177831
0.00180696
0.00183566
0.00186439
0.00189314
0.00192189
0.00195063
0.00197933
0.00200798
0.00203656
0.00206504
0.0020934
0.0021216
0.0021496
0.00217737
0.00220485
0.00223199
0.00225873
0.00228503
0.00231096
0.00233656
0.00236185
0.00238679
0.00241137
0.00243555
0.00245932
0.00248265
0.00250551
0.00252787
0.00254971
0.002571
0.0025917
0.0026118
0.00263125
0.00265003
0.00266812
0.00268547
0.00270207
0.00271788
0.00273287
0.00274702
0.00276031
0.0027727
0.00278419
0.00279476
0.0028044
0.00281309
0.00282107
0.00282799
0.00283321
0.00283764
0.00284148
0.00284416
0.00284579
0.00284637
0.00284593
0.00284449
0.00284207
0.00283868
0.00283436
0.00282912
0.00282302
0.00281608
0.00280834
0.00279984
0.00279065
0.00278081
0.00277038
0.00275943
0.00274801
0.00273618
0.00272401
0.00271155
0.00269888
0.00268606
0.00267315
0.00266021
0.00264731
0.00263451
0.00262188
0.00260947
0.00259735
0.00258557
0.00257418
0.00256321
0.00255271
0.0025427
0.00253318
0.00252415
0.00251553
0.00250701
0.00249788
0.00248868
0.00247943
0.00247032
0.00246169
0.00245306
0.00244409
0.00243509
0.002426
0.00241639
0.0024057
0.00239269
0.00237257
0.00233029
8.42552e-06
9.14313e-05
0.000187129
0.000263806
0.000322763
0.000367703
0.000402597
0.000430561
0.000453895
0.000474204
0.000492548
0.000509587
0.00052571
0.000541136
0.000555993
0.000570371
0.000584361
0.000598085
0.000611718
0.000625505
0.000639755
0.00065482
0.000671029
0.000688599
0.000707551
0.000727678
0.000748672
0.000770249
0.000792248
0.000814702
0.00083782
0.000861859
0.000886388
0.000911681
0.000937878
0.000964646
0.000991803
0.0010192
0.00104674
0.0010744
0.00110223
0.00113025
0.00115845
0.00118684
0.00121543
0.00124421
0.0012732
0.00130239
0.00133179
0.00136138
0.00139119
0.00142122
0.00145149
0.00148199
0.00151272
0.0015437
0.0015749
0.00160634
0.00163802
0.00166993
0.00170206
0.00173441
0.00176697
0.00179975
0.00183272
0.00186588
0.00189923
0.00193274
0.00196641
0.00200022
0.00203417
0.00206823
0.00210239
0.00213665
0.00217097
0.00220535
0.00223976
0.00227419
0.00230862
0.00234304
0.00237741
0.00241172
0.00244595
0.00248008
0.00251407
0.0025479
0.00258155
0.00261498
0.00264816
0.00268106
0.00271364
0.00274586
0.00277771
0.00280919
0.00284028
0.00287101
0.00290135
0.00293127
0.00296077
0.0029898
0.00301834
0.00304637
0.00307384
0.00310073
0.00312701
0.00315266
0.00317762
0.00320188
0.0032254
0.00324814
0.00327007
0.00329117
0.00331138
0.00333068
0.00334904
0.00336643
0.00338281
0.00339815
0.00341244
0.00342565
0.00343775
0.00344872
0.00345879
0.00346782
0.00347501
0.00348091
0.00348609
0.00348996
0.00349257
0.00349392
0.00349404
0.00349294
0.00349064
0.00348717
0.00348256
0.00347683
0.00347003
0.00346219
0.00345336
0.0034436
0.00343296
0.00342151
0.00340932
0.00339644
0.00338296
0.00336894
0.00335446
0.00333959
0.00332441
0.003309
0.00329344
0.0032778
0.00326217
0.00324662
0.00323123
0.00321608
0.00320124
0.00318678
0.00317275
0.00315922
0.00314624
0.00313383
0.00312203
0.00311083
0.00310017
0.00308986
0.00307952
0.00306931
0.00305922
0.0030493
0.00303974
0.00303029
0.00302075
0.00301119
0.00300151
0.00299139
0.00298033
0.00296711
0.00294761
0.00290881
1.03856e-05
0.000103014
0.000210232
0.00029741
0.000365794
0.000418632
0.000460004
0.000493199
0.000520732
0.000544452
0.000565662
0.000585252
0.00060381
0.000621722
0.000639248
0.000656575
0.000673862
0.000691266
0.000708959
0.000727141
0.00074603
0.000765849
0.000786791
0.000808971
0.000832391
0.000856935
0.000882419
0.000908648
0.000935487
0.00096289
0.000990888
0.00101951
0.00104867
0.0010784
0.00110868
0.00113939
0.00117044
0.00120175
0.00123327
0.00126498
0.00129688
0.00132898
0.00136127
0.00139378
0.00142649
0.00145941
0.00149255
0.00152592
0.00155951
0.00159335
0.00162743
0.00166175
0.0016963
0.00173109
0.00176612
0.00180138
0.00183688
0.00187261
0.00190857
0.00194475
0.00198116
0.00201777
0.00205459
0.0020916
0.0021288
0.00216617
0.00220371
0.0022414
0.00227922
0.00231717
0.00235523
0.00239338
0.00243161
0.0024699
0.00250823
0.00254659
0.00258495
0.0026233
0.00266162
0.00269989
0.00273808
0.00277618
0.00281416
0.002852
0.00288968
0.00292716
0.00296443
0.00300146
0.00303822
0.00307468
0.00311081
0.00314661
0.00318205
0.00321712
0.0032518
0.00328608
0.00331995
0.00335337
0.00338632
0.00341878
0.00345071
0.00348209
0.00351288
0.00354306
0.0035726
0.00360145
0.00362959
0.00365698
0.00368359
0.00370938
0.00373431
0.00375835
0.00378146
0.00380361
0.00382475
0.00384485
0.00386387
0.00388179
0.00389857
0.00391417
0.00392858
0.00394175
0.00395386
0.00396496
0.00397425
0.00398187
0.00398863
0.00399399
0.00399794
0.00400048
0.00400163
0.0040014
0.00399981
0.00399688
0.00399265
0.00398714
0.00398039
0.00397244
0.00396335
0.00395316
0.00394194
0.00392975
0.00391667
0.00390276
0.00388811
0.0038728
0.00385689
0.00384049
0.00382367
0.00380652
0.00378914
0.00377161
0.00375402
0.00373646
0.00371903
0.00370181
0.00368489
0.00366835
0.00365226
0.0036367
0.00362173
0.00360739
0.00359374
0.00358077
0.00356848
0.00355674
0.00354536
0.00353434
0.00352366
0.00351333
0.0035034
0.00349374
0.00348423
0.00347482
0.00346542
0.00345576
0.00344543
0.00343336
0.00341616
0.00338418
1.21585e-05
0.000112562
0.000229368
0.000325683
0.000402526
0.000462772
0.000510423
0.000548881
0.000580807
0.000608224
0.000632625
0.000655081
0.00067635
0.000696958
0.000717277
0.000737574
0.000758058
0.000778901
0.000800262
0.00082229
0.00084513
0.00086891
0.000893728
0.000919632
0.000946609
0.000974585
0.00100344
0.00103305
0.0010633
0.00109414
0.00112552
0.00115744
0.00118985
0.00122273
0.00125605
0.00128974
0.00132375
0.00135802
0.00139253
0.00142726
0.00146219
0.00149733
0.00153267
0.00156821
0.00160397
0.00163993
0.00167612
0.00171252
0.00174916
0.00178602
0.00182312
0.00186044
0.001898
0.00193578
0.00197379
0.00201204
0.0020505
0.00208919
0.00212809
0.00216721
0.00220653
0.00224605
0.00228575
0.00232564
0.00236569
0.0024059
0.00244626
0.00248675
0.00252736
0.00256807
0.00260887
0.00264975
0.00269069
0.00273166
0.00277266
0.00281366
0.00285465
0.0028956
0.00293651
0.00297734
0.00301808
0.0030587
0.00309919
0.00313953
0.00317968
0.00321963
0.00325936
0.00329883
0.00333804
0.00337695
0.00341555
0.00345381
0.00349173
0.00352928
0.00356644
0.0036032
0.00363954
0.00367543
0.00371085
0.00374577
0.00378016
0.003814
0.00384726
0.00387991
0.00391191
0.00394323
0.00397385
0.00400371
0.0040328
0.00406107
0.00408848
0.004115
0.00414058
0.00416519
0.00418878
0.00421131
0.00423276
0.00425307
0.0042722
0.00429013
0.00430682
0.00432222
0.00433646
0.00434965
0.00436111
0.00437086
0.00437941
0.00438655
0.00439219
0.0043963
0.00439889
0.00439997
0.00439956
0.00439768
0.00439436
0.00438962
0.0043835
0.00437603
0.00436727
0.00435727
0.00434609
0.00433379
0.00432045
0.00430614
0.00429094
0.00427494
0.00425821
0.00424085
0.00422296
0.00420462
0.00418594
0.00416701
0.00414793
0.00412881
0.00410974
0.00409083
0.00407218
0.00405387
0.004036
0.00401866
0.00400192
0.00398586
0.00397052
0.00395594
0.00394214
0.00392907
0.00391662
0.00390475
0.00389345
0.00388271
0.00387251
0.0038628
0.00385347
0.00384447
0.00383569
0.00382697
0.00381797
0.00380776
0.00379367
0.00376878
1.37088e-05
0.000120248
0.000244917
0.000349385
0.000433617
0.000500745
0.000554443
0.000598138
0.000634571
0.000665878
0.000693683
0.000719198
0.000743307
0.000766652
0.000789692
0.000812761
0.000836105
0.00085991
0.000884321
0.000909459
0.000935421
0.000962283
0.000990088
0.00101885
0.00104853
0.00107909
0.00111045
0.00114251
0.0011752
0.00120845
0.00124222
0.00127647
0.00131117
0.00134629
0.0013818
0.00141764
0.00145378
0.00149017
0.0015268
0.00156364
0.00160068
0.00163792
0.00167536
0.00171299
0.00175082
0.00178884
0.00182708
0.00186551
0.00190416
0.00194302
0.0019821
0.00202138
0.00206088
0.00210059
0.00214052
0.00218065
0.00222099
0.00226153
0.00230227
0.00234321
0.00238433
0.00242563
0.0024671
0.00250873
0.00255052
0.00259245
0.00263451
0.00267669
0.00271897
0.00276134
0.0028038
0.00284631
0.00288887
0.00293147
0.00297407
0.00301668
0.00305926
0.00310181
0.0031443
0.00318672
0.00322904
0.00327124
0.00331332
0.00335523
0.00339698
0.00343853
0.00347986
0.00352096
0.0035618
0.00360236
0.00364263
0.00368259
0.00372222
0.00376151
0.00380042
0.00383895
0.00387708
0.00391477
0.00395202
0.00398879
0.00402505
0.00406079
0.00409598
0.00413058
0.00416456
0.0041979
0.00423056
0.00426251
0.00429371
0.00432413
0.00435372
0.00438245
0.00441027
0.00443715
0.00446304
0.00448789
0.00451166
0.00453431
0.0045558
0.00457608
0.00459511
0.00461284
0.00462935
0.00464475
0.0046585
0.00467061
0.00468126
0.00469049
0.00469814
0.00470416
0.00470854
0.00471131
0.00471247
0.00471205
0.00471006
0.00470652
0.00470147
0.00469494
0.00468696
0.00467761
0.00466692
0.00465496
0.0046418
0.00462752
0.0046122
0.00459592
0.00457876
0.00456083
0.00454221
0.00452301
0.00450333
0.00448328
0.00446297
0.0044425
0.00442199
0.00440155
0.0043813
0.00436133
0.00434176
0.00432268
0.0043042
0.00428639
0.00426935
0.00425313
0.00423776
0.00422326
0.00420959
0.00419672
0.00418465
0.00417335
0.00416282
0.00415302
0.00414388
0.00413536
0.00412739
0.00411984
0.00411248
0.00410453
0.00409389
0.00407563
1.50148e-05
0.000126238
0.000257216
0.000368657
0.000459456
0.00053291
0.000592348
0.000641154
0.000682092
0.000717357
0.000748657
0.000777299
0.000804262
0.000830272
0.000855864
0.000881426
0.000907234
0.000933484
0.000960319
0.000987841
0.00101612
0.00104527
0.00107527
0.00110611
0.00113776
0.00117017
0.00120328
0.00123703
0.00127136
0.00130621
0.00134154
0.00137731
0.00141348
0.00145004
0.00148694
0.00152419
0.00156169
0.00159942
0.00163735
0.00167548
0.00171379
0.00175226
0.00179091
0.00182974
0.00186873
0.00190791
0.00194726
0.0019868
0.00202652
0.00206643
0.00210653
0.00214682
0.0021873
0.00222797
0.00226883
0.00230988
0.00235112
0.00239255
0.00243415
0.00247594
0.0025179
0.00256003
0.00260231
0.00264476
0.00268734
0.00273007
0.00277292
0.00281589
0.00285896
0.00290213
0.00294538
0.00298869
0.00303206
0.00307547
0.00311891
0.00316235
0.00320578
0.0032492
0.00329257
0.00333588
0.00337911
0.00342225
0.00346528
0.00350817
0.00355091
0.00359349
0.00363587
0.00367805
0.00372
0.0037617
0.00380314
0.00384431
0.00388517
0.00392572
0.00396593
0.00400579
0.00404528
0.00408438
0.00412306
0.0041613
0.00419908
0.00423638
0.00427317
0.00430941
0.0043451
0.00438019
0.00441465
0.00444846
0.00448157
0.00451395
0.00454557
0.00457638
0.00460633
0.00463539
0.00466351
0.00469065
0.00471675
0.00474176
0.00476564
0.00478835
0.00480982
0.00483002
0.00484898
0.00486673
0.00488293
0.00489758
0.00491066
0.00492226
0.00493223
0.00494046
0.00494695
0.00495173
0.0049548
0.00495618
0.00495587
0.00495389
0.00495027
0.00494503
0.00493821
0.00492985
0.00492
0.00490873
0.00489609
0.00488216
0.00486701
0.00485074
0.00483342
0.00481516
0.00479605
0.00477619
0.00475569
0.00473467
0.00471324
0.00469152
0.00466964
0.00464771
0.00462586
0.00460421
0.00458289
0.00456201
0.00454168
0.00452203
0.00450314
0.00448512
0.00446802
0.00445191
0.00443679
0.00442268
0.0044096
0.00439754
0.00438651
0.00437649
0.00436746
0.00435939
0.00435225
0.00434598
0.00434038
0.00433487
0.00432776
0.00431549
1.6067e-05
0.000130681
0.000266537
0.000383795
0.00048035
0.000559527
0.000624309
0.000677989
0.000723304
0.000762465
0.000797223
0.000828943
0.000858668
0.000887182
0.000915072
0.000942836
0.000970741
0.00099898
0.00102769
0.00105696
0.00108681
0.00111744
0.00114882
0.00118095
0.0012138
0.00124732
0.00128147
0.0013162
0.00135146
0.0013872
0.00142339
0.00145998
0.00149694
0.00153424
0.00157186
0.00160976
0.00164782
0.00168612
0.0017246
0.00176321
0.00180196
0.00184084
0.00187985
0.001919
0.00195828
0.00199772
0.0020373
0.00207703
0.00211693
0.00215698
0.0021972
0.00223759
0.00227815
0.00231888
0.00235979
0.00240087
0.00244213
0.00248357
0.00252518
0.00256698
0.00260894
0.00265108
0.00269338
0.00273585
0.00277847
0.00282125
0.00286417
0.00290723
0.00295041
0.00299371
0.00303712
0.00308062
0.00312421
0.00316786
0.00321158
0.00325533
0.00329912
0.00334291
0.0033867
0.00343047
0.0034742
0.00351787
0.00356147
0.00360497
0.00364836
0.00369162
0.00373473
0.00377767
0.00382042
0.00386297
0.0039053
0.00394739
0.00398922
0.00403078
0.00407204
0.00411299
0.0041536
0.00419387
0.00423377
0.00427328
0.00431238
0.00435104
0.00438925
0.00442698
0.0044642
0.00450089
0.00453702
0.00457256
0.00460747
0.00464173
0.00467529
0.00470811
0.00474015
0.00477136
0.00480171
0.00483113
0.00485958
0.00488701
0.00491336
0.00493857
0.00496261
0.0049854
0.00500697
0.00502725
0.00504608
0.00506344
0.00507924
0.00509346
0.00510605
0.00511676
0.00512564
0.00513271
0.00513799
0.00514147
0.00514316
0.00514306
0.00514119
0.00513755
0.00513219
0.00512513
0.00511642
0.00510612
0.00509427
0.00508095
0.00506623
0.00505019
0.00503293
0.00501452
0.00499508
0.00497471
0.00495351
0.00493162
0.00490914
0.00488622
0.00486297
0.00483954
0.00481606
0.00479266
0.00476949
0.00474668
0.00472437
0.0047027
0.00468179
0.00466176
0.00464273
0.00462477
0.00460796
0.00459235
0.00457799
0.00456492
0.00455317
0.00454275
0.00453367
0.00452596
0.0045196
0.00451458
0.00451078
0.00450773
0.00450411
0.00449746
1.68667e-05
0.000133736
0.00027316
0.000395113
0.000496596
0.000580833
0.000650475
0.000708679
0.000758117
0.000800981
0.000839031
0.000873667
0.000905989
0.00093677
0.00096656
0.000995916
0.00102522
0.00105473
0.00108462
0.00111501
0.00114602
0.0011777
0.00121002
0.00124294
0.00127646
0.00131052
0.00134511
0.00138017
0.00141567
0.00145156
0.00148782
0.0015244
0.00156128
0.00159842
0.00163583
0.00167353
0.00171148
0.00174966
0.00178792
0.00182623
0.00186461
0.00190304
0.00194155
0.00198014
0.00201883
0.00205762
0.00209654
0.00213558
0.00217475
0.00221407
0.00225353
0.00229315
0.00233293
0.00237287
0.002413
0.0024533
0.00249379
0.00253447
0.00257535
0.00261642
0.00265769
0.00269916
0.00274083
0.0027827
0.00282477
0.00286703
0.00290948
0.00295212
0.00299493
0.00303791
0.00308105
0.00312434
0.00316777
0.00321133
0.003255
0.00329877
0.00334262
0.00338654
0.00343051
0.00347452
0.00351853
0.00356255
0.00360654
0.00365049
0.00369437
0.00373817
0.00378187
0.00382545
0.00386889
0.00391217
0.00395527
0.00399817
0.00404086
0.00408331
0.00412552
0.00416745
0.0042091
0.00425044
0.00429146
0.00433214
0.00437245
0.00441239
0.00445193
0.00449105
0.00452973
0.00456794
0.00460566
0.00464286
0.00467951
0.00471558
0.00475104
0.00478583
0.00481993
0.00485329
0.00488586
0.00491759
0.00494842
0.0049783
0.00500718
0.005035
0.00506169
0.0050872
0.00511149
0.0051345
0.00515612
0.00517638
0.00519509
0.00521218
0.00522768
0.00524113
0.00525264
0.00526227
0.00527003
0.0052759
0.00527987
0.00528193
0.00528209
0.00528035
0.00527673
0.00527125
0.00526395
0.00525488
0.00524408
0.00523161
0.00521755
0.00520196
0.00518494
0.00516658
0.00514697
0.00512622
0.00510445
0.00508177
0.00505831
0.00503422
0.00500963
0.00498468
0.00495953
0.00493432
0.00490922
0.00488438
0.00485995
0.00483611
0.00481299
0.00479077
0.00476958
0.00474955
0.00473081
0.00471345
0.00469756
0.00468322
0.0046705
0.00465947
0.00465016
0.00464264
0.00463695
0.00463309
0.00463103
0.00463037
0.0046301
0.0046286
1.74267e-05
0.000135586
0.00027737
0.00040293
0.00050849
0.000597059
0.000670982
0.000733243
0.000786421
0.000832676
0.00087367
0.000910675
0.000944997
0.000977533
0.00100901
0.00104001
0.00107076
0.00110148
0.00113238
0.00116358
0.00119516
0.00122716
0.0012596
0.0012925
0.00132585
0.00135963
0.00139381
0.00142838
0.00146328
0.00149847
0.00153394
0.00156967
0.00160563
0.00164177
0.00167807
0.00171458
0.00175132
0.00178833
0.00182547
0.00186262