/*--------------------------------*- C++ -*----------------------------------*\
  =========                 |
  \\      /  F ield         | OpenFOAM: The Open Source CFD Toolbox
   \\    /   O peration     | Website:  https://openfoam.org
    \\  /    A nd           | Version:  8
     \\/     M anipulation  |
\*---------------------------------------------------------------------------*/
/*   Windows 32 and 64 bit porting by blueCAPE: http://www.bluecape.com.pt   *\
|  Based on Windows porting (2.0.x v4) by Symscape: http://www.symscape.com   |
\*---------------------------------------------------------------------------*/
FoamFile
{
    version     2.0;
    format      ascii;
    class       volScalarField;
    location    "200";
    object      p;
}
// * * * * * * * * * * * * * * * * * * * * * * * * * * * * * * * * * * * * * //

dimensions      [0 2 -2 0 0 0 0];

internalField   nonuniform List<scalar> 
12225
(
-2.17813
-4.3667
-5.46666
-5.78727
-5.9685
-6.13749
-6.26901
-6.36413
-6.44072
-6.50809
-6.56807
-6.62292
-6.67268
-6.71899
-6.7621
-6.79732
-6.84078
-6.80769
-5.34156
-6.11
-6.27042
-6.17813
-6.16556
-6.23337
-6.31089
-6.3766
-6.4362
-6.49361
-6.54821
-6.59909
-6.64695
-6.69196
-6.73507
-6.77249
-6.81575
-6.84296
-5.7427
-5.72769
-5.855
-5.93331
-6.02816
-6.14829
-6.25548
-6.34029
-6.41209
-6.47742
-6.53751
-6.59241
-6.64354
-6.69119
-6.73687
-6.77822
-6.8254
-6.86609
-5.62076
-5.56385
-5.8054
-5.96367
-6.06536
-6.17151
-6.26916
-6.34917
-6.41788
-6.48095
-6.53949
-6.5935
-6.64411
-6.69165
-6.73754
-6.78097
-6.82827
-6.87549
-5.61042
-5.63485
-5.86287
-6.00437
-6.08793
-6.17994
-6.27111
-6.34879
-6.4163
-6.47849
-6.53659
-6.59056
-6.64135
-6.68944
-6.73609
-6.78139
-6.82919
-6.87929
-5.66837
-5.71731
-5.89154
-6.01539
-6.09686
-6.18463
-6.27262
-6.34908
-6.41601
-6.47768
-6.53544
-6.58936
-6.64025
-6.68871
-6.73584
-6.78215
-6.83007
-6.88035
-5.7287
-5.77294
-5.90808
-6.02435
-6.10803
-6.19211
-6.27598
-6.35056
-6.4166
-6.47757
-6.53481
-6.58852
-6.63937
-6.688
-6.73536
-6.78208
-6.82971
-6.87893
-5.78222
-5.81986
-5.92978
-6.03801
-6.12095
-6.20049
-6.27985
-6.35227
-6.41726
-6.47743
-6.53407
-6.58748
-6.63819
-6.68685
-6.73421
-6.7809
-6.82788
-6.87551
-5.83194
-5.86506
-5.95593
-6.05383
-6.13385
-6.20916
-6.28425
-6.35431
-6.41806
-6.47731
-6.53323
-6.58621
-6.63664
-6.68511
-6.73224
-6.77852
-6.82456
-6.87042
-5.87896
-5.9082
-5.98368
-6.07083
-6.14697
-6.21844
-6.28949
-6.35692
-6.41916
-6.47731
-6.53238
-6.58475
-6.63473
-6.6828
-6.72944
-6.77503
-6.81992
-6.86399
-5.92324
-5.94872
-6.01187
-6.08898
-6.1606
-6.22835
-6.2955
-6.36012
-6.42063
-6.47753
-6.53159
-6.58317
-6.63251
-6.67998
-6.72593
-6.7706
-6.81422
-6.85655
-5.96123
-5.98356
-6.03771
-6.10647
-6.17352
-6.23784
-6.30159
-6.36356
-6.42231
-6.47792
-6.53093
-6.58164
-6.63024
-6.67699
-6.72213
-6.76584
-6.80824
-6.84905
-5.9963
-6.01601
-6.06278
-6.1241
-6.18653
-6.24745
-6.30798
-6.36733
-6.42422
-6.47845
-6.53032
-6.58006
-6.62781
-6.67372
-6.71797
-6.76065
-6.80182
-6.84122
-6.03304
-6.05022
-6.09019
-6.14415
-6.2014
-6.2585
-6.31555
-6.37196
-6.42665
-6.4792
-6.52967
-6.57818
-6.62482
-6.66966
-6.71278
-6.75423
-6.79403
-6.83195
-6.0702
-6.08497
-6.11893
-6.16596
-6.21778
-6.27071
-6.32409
-6.37734
-6.42953
-6.48008
-6.52887
-6.5759
-6.62117
-6.66468
-6.70646
-6.7465
-6.78479
-6.82118
-6.1058
-6.11842
-6.14732
-6.18823
-6.23474
-6.2834
-6.33308
-6.38308
-6.43255
-6.48087
-6.52774
-6.57304
-6.6167
-6.65867
-6.69893
-6.73742
-6.77416
-6.80901
-6.13695
-6.14782
-6.17275
-6.20866
-6.2505
-6.29518
-6.34139
-6.38828
-6.43505
-6.48104
-6.52585
-6.56929
-6.6112
-6.6515
-6.69013
-6.72703
-6.7622
-6.79557
-6.15929
-6.16893
-6.19118
-6.22362
-6.26204
-6.30365
-6.34707
-6.3914
-6.43583
-6.47972
-6.52261
-6.56424
-6.60445
-6.64311
-6.68015
-6.71552
-6.7492
-6.78119
-6.16592
-6.17507
-6.19628
-6.22742
-6.2645
-6.30476
-6.34679
-6.38971
-6.43275
-6.47526
-6.51678
-6.55704
-6.59588
-6.63319
-6.66891
-6.703
-6.73545
-6.76629
-6.14967
-6.15945
-6.18204
-6.21511
-6.2541
-6.29578
-6.33872
-6.38222
-6.42557
-6.46812
-6.50944
-6.54934
-6.58768
-6.6244
-6.65945
-6.69284
-6.72457
-6.75472
-6.12275
-6.13354
-6.15881
-6.19582
-6.23859
-6.28309
-6.32816
-6.37337
-6.41798
-6.46131
-6.50306
-6.54313
-6.58149
-6.61808
-6.65291
-6.686
-6.71742
-6.74722
-6.08748
-6.0993
-6.12865
-6.17223
-6.2205
-6.26847
-6.31627
-6.36397
-6.4105
-6.45507
-6.49757
-6.5381
-6.5767
-6.61335
-6.64812
-6.68107
-6.7123
-6.74189
-6.0469
-6.0588
-6.09325
-6.14651
-6.20205
-6.254
-6.30487
-6.3553
-6.40379
-6.44965
-6.49305
-6.53421
-6.57318
-6.61002
-6.64483
-6.67776
-6.7089
-6.73839
-6.00317
-6.01415
-6.05592
-6.12034
-6.18251
-6.23918
-6.29479
-6.34863
-6.39887
-6.44567
-6.48977
-6.53143
-6.57066
-6.60759
-6.64241
-6.67528
-6.70634
-6.7357
-5.95623
-5.96173
-6.02439
-6.1026
-6.16453
-6.22277
-6.2839
-6.34224
-6.39475
-6.44278
-6.48777
-6.53001
-6.56953
-6.60654
-6.64133
-6.67412
-6.70509
-6.73441
-5.91291
-5.87659
-5.98612
-6.09709
-6.15933
-6.21461
-6.2768
-6.33653
-6.38973
-6.43843
-6.48413
-6.5269
-6.56675
-6.60395
-6.63884
-6.67169
-6.70268
-6.73201
-5.92713
-5.76818
-5.8971
-6.05118
-6.14128
-6.21263
-6.28155
-6.34244
-6.39522
-6.44349
-6.48874
-6.53098
-6.57024
-6.60688
-6.64123
-6.67357
-6.70415
-6.7332
-6.05032
-5.86994
-5.88411
-5.95624
-6.0446
-6.14381
-6.23449
-6.30826
-6.36994
-6.42506
-6.47535
-6.52109
-6.56287
-6.60134
-6.637
-6.6703
-6.70171
-6.73183
-5.7577
-6.34879
-6.43762
-6.31337
-6.25902
-6.28617
-6.33314
-6.37636
-6.41791
-6.46007
-6.50154
-6.54084
-6.57778
-6.61248
-6.64502
-6.67554
-6.70426
-6.73295
-2.76837
-4.53168
-5.53637
-5.83551
-5.98468
-6.12829
-6.24231
-6.32326
-6.38747
-6.44432
-6.49555
-6.54157
-6.58322
-6.62142
-6.65669
-6.6888
-6.71762
-6.74138
-7.63998
-7.64003
-7.64055
-7.64166
-7.64323
-7.64522
-7.6476
-7.65036
-7.65352
-7.65709
-7.66111
-7.66563
-7.67067
-7.67628
-7.68254
-7.6895
-7.69722
-7.70575
-7.71517
-7.72566
-7.73719
-7.74946
-7.76213
-7.77503
-7.78769
-7.8
-7.81323
-7.82928
-7.84871
-7.87006
-7.89214
-7.91473
-7.93754
-7.9618
-7.98605
-8.00781
-8.02781
-8.04961
-8.07407
-8.09943
-8.12562
-8.15247
-8.17982
-8.20757
-8.2356
-8.26385
-8.29219
-8.32059
-8.34892
-8.37714
-8.40513
-8.43285
-8.46016
-8.48701
-8.51326
-8.53885
-8.56362
-8.5875
-8.61032
-8.63201
-8.65238
-8.67133
-8.68865
-8.70426
-8.71792
-8.72953
-8.73886
-8.74576
-8.75001
-8.75145
-8.74984
-8.74502
-8.73673
-8.72481
-8.70899
-8.6891
-8.66486
-8.6361
-8.60255
-8.56401
-8.52023
-8.47102
-8.41611
-8.35534
-8.28844
-8.21523
-8.13549
-8.04903
-7.9557
-7.85542
-7.74821
-7.63407
-7.5128
-7.38387
-7.24691
-7.10194
-6.94908
-6.78836
-6.61981
-6.44345
-6.25933
-6.06751
-5.86807
-5.66116
-5.44691
-5.22551
-4.9972
-4.76219
-4.52078
-4.27327
-4.01998
-3.76128
-3.49755
-3.22919
-2.95663
-2.68032
-2.40073
-2.11833
-1.83359
-1.54697
-1.25897
-0.970074
-0.680786
-0.391607
-0.10301
0.18457
0.470705
0.754968
1.03697
1.31632
1.5927
1.86575
2.13522
2.40083
2.66239
2.91968
3.1726
3.42106
3.66503
3.90445
4.1393
4.36962
4.59549
4.81707
5.03452
5.24804
5.45784
5.6642
5.86738
6.0677
6.26549
6.46111
6.65493
6.84735
7.03879
7.22969
7.42049
7.61164
7.80361
7.99686
8.19184
8.38902
8.58882
8.79163
8.99785
9.20794
9.42207
9.63996
9.86132
10.0862
10.3148
10.5466
10.7813
11.0184
11.2572
11.497
11.7379
11.9793
12.234
12.4912
-7.63773
-7.63827
-7.63908
-7.63997
-7.64079
-7.64167
-7.64286
-7.64448
-7.6466
-7.64924
-7.65243
-7.65616
-7.66045
-7.66532
-7.6708
-7.67691
-7.68369
-7.69113
-7.69928
-7.70806
-7.71727
-7.72686
-7.7372
-7.74845
-7.76066
-7.77471
-7.79102
-7.80826
-7.82441
-7.8397
-7.8555
-7.87234
-7.89175
-7.91318
-7.93635
-7.96275
-7.99255
-8.02223
-8.04941
-8.07621
-8.10311
-8.13027
-8.15769
-8.18537
-8.21325
-8.24129
-8.26941
-8.29756
-8.32565
-8.35362
-8.38139
-8.40889
-8.43601
-8.46268
-8.48879
-8.51426
-8.53895
-8.56278
-8.58559
-8.6073
-8.62773
-8.64678
-8.66426
-8.68005
-8.69397
-8.70586
-8.71553
-8.72282
-8.72752
-8.72946
-8.72842
-8.72421
-8.7166
-8.70541
-8.6904
-8.67137
-8.64808
-8.62031
-8.58783
-8.55044
-8.50789
-8.45997
-8.40646
-8.34716
-8.28184
-8.21031
-8.13235
-8.04778
-7.9564
-7.85808
-7.75266
-7.6399
-7.51955
-7.39159
-7.25612
-7.11305
-6.96226
-6.8037
-6.63734
-6.46318
-6.28128
-6.09168
-5.89447
-5.68976
-5.4777
-5.25847
-5.03227
-4.79934
-4.55995
-4.31438
-4.06296
-3.80604
-3.544
-3.27723
-3.00614
-2.73119
-2.45284
-2.17154
-1.88778
-1.60201
-1.31472
-1.02642
-0.737579
-0.448702
-0.160274
0.127274
0.413504
0.697998
0.980352
1.26019
1.53716
1.81093
2.0812
2.34773
2.61027
2.86864
3.12269
3.37235
3.61754
3.85822
4.09434
4.32592
4.55306
4.77588
4.99454
5.20923
5.42016
5.62757
5.83174
6.03297
6.23158
6.42793
6.62237
6.81532
7.00716
7.19834
7.38928
7.58046
7.77231
7.9653
8.15988
8.35653
8.5557
8.75777
8.96307
9.17201
9.38471
9.60096
9.82067
10.044
10.2708
10.5011
10.7343
10.9701
11.2078
11.447
11.6883
11.9307
12.1886
12.4382
-7.63168
-7.63334
-7.63565
-7.63743
-7.63851
-7.63933
-7.64027
-7.64154
-7.64327
-7.64552
-7.64832
-7.65168
-7.65562
-7.66017
-7.66534
-7.67116
-7.67764
-7.68479
-7.69261
-7.70109
-7.71011
-7.71962
-7.72973
-7.74072
-7.75298
-7.76706
-7.78312
-7.80053
-7.81829
-7.8361
-7.85426
-7.8729
-7.89221
-7.91213
-7.9329
-7.95558
-7.98036
-8.00623
-8.03215
-8.05829
-8.08471
-8.11141
-8.13835
-8.16553
-8.19288
-8.22037
-8.24794
-8.27553
-8.30309
-8.33054
-8.35781
-8.38483
-8.41151
-8.43777
-8.4635
-8.48861
-8.513
-8.53655
-8.55914
-8.58066
-8.60097
-8.61992
-8.63737
-8.65317
-8.66716
-8.67918
-8.68905
-8.69658
-8.7016
-8.70392
-8.70332
-8.69963
-8.69262
-8.6821
-8.66783
-8.64962
-8.62723
-8.60044
-8.56903
-8.53279
-8.49147
-8.44488
-8.39278
-8.33496
-8.27122
-8.20136
-8.12516
-8.04245
-7.95304
-7.85677
-7.75348
-7.64293
-7.52488
-7.39926
-7.26612
-7.12541
-6.97705
-6.82097
-6.65715
-6.48558
-6.30628
-6.11929
-5.9247
-5.72261
-5.51316
-5.29651
-5.07287
-4.84245
-4.60551
-4.36234
-4.11325
-3.85858
-3.59868
-3.33395
-3.06481
-2.79168
-2.51501
-2.23527
-1.95292
-1.66843
-1.38227
-1.09496
-0.806985
-0.518798
-0.230892
0.0562746
0.342265
0.626673
0.909085
1.18913
1.46644
1.74069
2.01156
2.27881
2.54216
2.80145
3.0565
3.30722
3.55353
3.79535
4.03266
4.26544
4.4938
4.71781
4.93764
5.15344
5.36543
5.57382
5.7789
5.98093
6.18025
6.37716
6.57205
6.76529
6.95728
7.14843
7.33919
7.52997
7.72125
7.9135
8.10715
8.30264
8.50048
8.7011
8.90484
9.11202
9.32282
9.53716
9.75503
9.97652
10.2016
10.4302
10.6619
10.8963
11.1332
11.3721
11.6142
11.8576
12.1181
12.3538
-7.62253
-7.62544
-7.62986
-7.63325
-7.63537
-7.63687
-7.6382
-7.63962
-7.64133
-7.64345
-7.64606
-7.64919
-7.65288
-7.65716
-7.66204
-7.66755
-7.6737
-7.68052
-7.688
-7.69617
-7.70499
-7.71448
-7.72469
-7.73574
-7.74785
-7.7613
-7.77618
-7.79238
-7.80959
-7.82765
-7.84655
-7.86627
-7.88667
-7.90761
-7.9291
-7.95145
-7.9748
-7.99899
-8.02376
-8.04903
-8.07472
-8.10078
-8.12715
-8.15378
-8.18061
-8.2076
-8.23469
-8.26183
-8.28895
-8.316
-8.34288
-8.36955
-8.3959
-8.42186
-8.44734
-8.47223
-8.49644
-8.51985
-8.54234
-8.5638
-8.58408
-8.60306
-8.62058
-8.6365
-8.65066
-8.66289
-8.67301
-8.68086
-8.68624
-8.68898
-8.68886
-8.68569
-8.67926
-8.66937
-8.65581
-8.63835
-8.61677
-8.59086
-8.56039
-8.52513
-8.48487
-8.43939
-8.38846
-8.33187
-8.26941
-8.20087
-8.12605
-8.04476
-7.95681
-7.86204
-7.76027
-7.65131
-7.53498
-7.41118
-7.27987
-7.14102
-6.99453
-6.84035
-6.67845
-6.50882
-6.33147
-6.14645
-5.95382
-5.75368
-5.54617
-5.33145
-5.1097
-4.88113
-4.64601
-4.4046
-4.15721
-3.90416
-3.64583
-3.38258
-3.11483
-2.843
-2.56754
-2.2889
-2.00754
-1.72394
-1.43857
-1.15193
-0.864531
-0.576807
-0.289223
-0.00226735
0.283622
0.568039
0.850582
1.13087
1.40852
1.68322
1.95464
2.22252
2.4866
2.74669
3.00262
3.25428
3.50156
3.7444
3.98274
4.21659
4.44602
4.67112
4.89202
5.10886
5.32186
5.53122
5.7372
5.94006
6.14013
6.3377
6.53315
6.72682
6.91912
7.11043
7.30121
7.49185
7.6828
7.87453
8.0675
8.26213
8.45887
8.65811
8.8602
9.06548
9.27415
9.48631
9.70203
9.92139
10.1444
10.3709
10.6006
10.8333
11.0687
11.3064
11.5476
11.7898
12.0479
12.269
-7.61267
-7.61686
-7.62355
-7.62878
-7.63222
-7.6347
-7.63676
-7.63871
-7.64076
-7.64309
-7.64582
-7.64902
-7.65274
-7.65703
-7.66192
-7.66743
-7.67359
-7.68042
-7.68793
-7.69616
-7.70511
-7.71484
-7.72538
-7.73683
-7.74928
-7.76283
-7.7775
-7.79327
-7.81003
-7.82775
-7.84638
-7.86591
-7.88626
-7.90734
-7.92908
-7.9515
-7.97458
-7.99827
-8.02248
-8.04718
-8.07231
-8.09783
-8.12369
-8.14984
-8.17623
-8.20279
-8.22948
-8.25624
-8.28301
-8.30973
-8.33631
-8.3627
-8.38882
-8.41457
-8.43986
-8.46461
-8.4887
-8.51203
-8.53448
-8.55592
-8.57623
-8.59527
-8.6129
-8.62896
-8.64329
-8.65573
-8.66611
-8.67425
-8.67996
-8.68307
-8.68336
-8.68065
-8.67472
-8.66537
-8.65238
-8.63554
-8.61463
-8.58942
-8.55969
-8.52523
-8.4858
-8.44118
-8.39116
-8.33551
-8.27403
-8.2065
-8.13272
-8.0525
-7.96564
-7.87198
-7.77136
-7.66359
-7.54851
-7.42602
-7.29603
-7.15848
-7.01329
-6.86042
-6.69982
-6.53149
-6.35543
-6.17168
-5.98031
-5.78143
-5.57514
-5.36161
-5.14102
-4.91358
-4.67953
-4.43916
-4.19275
-3.94063
-3.68317
-3.42073
-3.15373
-2.88258
-2.60773
-2.32963
-2.04875
-1.76554
-1.4805
-1.19414
-0.90694
-0.619367
-0.331855
-0.0448955
0.241067
0.525616
0.808364
1.0889
1.36689
1.64195
1.91381
2.18215
2.44675
2.70739
2.96391
3.21617
3.46407
3.70752
3.94647
4.18096
4.411
4.63673
4.85821
5.07564
5.28917
5.49904
5.70548
5.90877
6.10917
6.30704
6.5027
6.69653
6.88888
7.08015
7.27076
7.46114
7.65171
7.84293
8.03521
8.22899
8.4247
8.62273
8.82343
9.02713
9.23406
9.44439
9.65828
9.87582
10.097
10.3217
10.5498
10.7809
11.0149
11.2512
11.4909
11.7307
11.9841
12.192
-7.60405
-7.60945
-7.6181
-7.62504
-7.6298
-7.63336
-7.6363
-7.63895
-7.64155
-7.64432
-7.6474
-7.65089
-7.65486
-7.65938
-7.66449
-7.67023
-7.67662
-7.68371
-7.6915
-7.70003
-7.70932
-7.71942
-7.73035
-7.7422
-7.755
-7.76881
-7.78362
-7.79941
-7.81613
-7.83374
-7.85219
-7.87146
-7.8915
-7.91228
-7.93374
-7.95587
-7.9786
-8.0019
-8.02571
-8.04999
-8.0747
-8.09981
-8.12526
-8.15102
-8.17703
-8.20325
-8.22961
-8.25608
-8.28258
-8.30905
-8.33542
-8.36163
-8.38758
-8.4132
-8.4384
-8.46308
-8.48713
-8.51045
-8.53293
-8.55443
-8.57482
-8.59398
-8.61175
-8.62799
-8.64253
-8.65521
-8.66586
-8.6743
-8.68035
-8.68381
-8.6845
-8.6822
-8.67672
-8.66785
-8.65537
-8.63906
-8.61871
-8.5941
-8.56499
-8.53117
-8.49241
-8.44848
-8.39918
-8.34427
-8.28355
-8.2168
-8.14382
-8.06441
-7.97838
-7.88555
-7.78578
-7.67887
-7.56469
-7.44311
-7.31403
-7.17737
-7.03307
-6.88107
-6.72132
-6.55381
-6.37856
-6.1956
-6.005
-5.80684
-5.60126
-5.3884
-5.16844
-4.94159
-4.7081
-4.46823
-4.22228
-3.97058
-3.71347
-3.45135
-3.18462
-2.91369
-2.63901
-2.36102
-2.08021
-1.79703
-1.51199
-1.22558
-0.93831
-0.650636
-0.363001
-0.0758707
0.210294
0.495083
0.77809
1.05892
1.33721
1.6126
1.88478
2.15346
2.4184
2.67938
2.93624
3.18883
3.43702
3.68074
3.91994
4.15465
4.3849
4.61079
4.83241
5.04993
5.26351
5.47338
5.67977
5.88296
6.08322
6.28087
6.47624
6.66971
6.86163
7.05241
7.24245
7.43218
7.62201
7.81239
8.00375
8.19653
8.39114
8.58798
8.78741
8.98974
9.19523
9.40409
9.61653
9.83264
10.0525
10.2759
10.5028
10.7328
10.9656
11.2008
11.4389
11.676
11.9249
12.1214
-7.59808
-7.60447
-7.61461
-7.62292
-7.62886
-7.63344
-7.63726
-7.64066
-7.6439
-7.64722
-7.65077
-7.65468
-7.65904
-7.66392
-7.66938
-7.67546
-7.68219
-7.68963
-7.69778
-7.70669
-7.71636
-7.72684
-7.73815
-7.75033
-7.76341
-7.77741
-7.79233
-7.80816
-7.82486
-7.84241
-7.86075
-7.87986
-7.8997
-7.92023
-7.94143
-7.96327
-7.98569
-8.00867
-8.03215
-8.0561
-8.08049
-8.10528
-8.13042
-8.15589
-8.18163
-8.2076
-8.23374
-8.26
-8.28632
-8.31264
-8.33889
-8.365
-8.39088
-8.41646
-8.44165
-8.46634
-8.49044
-8.51383
-8.5364
-8.55802
-8.57856
-8.59789
-8.61586
-8.63232
-8.6471
-8.66005
-8.67098
-8.67973
-8.68611
-8.68992
-8.69097
-8.68907
-8.684
-8.67555
-8.66351
-8.64766
-8.62779
-8.60366
-8.57506
-8.54176
-8.50353
-8.46015
-8.4114
-8.35706
-8.29691
-8.23074
-8.15835
-8.07953
-7.99408
-7.90186
-7.80267
-7.69636
-7.58278
-7.46179
-7.3333
-7.19721
-7.05346
-6.90197
-6.74272
-6.57568
-6.40087
-6.21833
-6.0281
-5.8303
-5.62503
-5.41244
-5.19272
-4.96608
-4.73274
-4.49299
-4.24711
-3.99545
-3.73834
-3.47617
-3.20935
-2.93831
-2.66347
-2.3853
-2.10427
-1.82086
-1.53557
-1.24891
-0.961354
-0.673403
-0.385499
-0.0980846
0.188379
0.473478
0.756792
1.03794
1.31652
1.59221
1.86466
2.1336
2.39877
2.65997
2.91701
3.16973
3.41803
3.6618
3.90103
4.13569
4.36588
4.59163
4.8131
5.03038
5.24369
5.4532
5.65919
5.86189
6.06162
6.25865
6.45337
6.64608
6.8372
7.02709
7.21619
7.40489
7.59366
7.7829
7.97308
8.16462
8.35796
8.55349
8.75158
8.95255
9.15669
9.36424
9.5754
9.79033
10.009
10.2315
10.4574
10.6865
10.9185
11.1527
11.3893
11.624
11.869
12.0561
-7.59553
-7.6026
-7.61371
-7.623
-7.62987
-7.63532
-7.63993
-7.64403
-7.64791
-7.65179
-7.65585
-7.66023
-7.66503
-7.67032
-7.67617
-7.68263
-7.68974
-7.69755
-7.70606
-7.71532
-7.72535
-7.73617
-7.74779
-7.76025
-7.77355
-7.7877
-7.80271
-7.81856
-7.83523
-7.8527
-7.87093
-7.8899
-7.90957
-7.92992
-7.95092
-7.97253
-7.99472
-8.01745
-8.04069
-8.06442
-8.08858
-8.11315
-8.13809
-8.16337
-8.18894
-8.21475
-8.24076
-8.26692
-8.29316
-8.31943
-8.34565
-8.37175
-8.39766
-8.42329
-8.44854
-8.47333
-8.49754
-8.52107
-8.5438
-8.5656
-8.58634
-8.60589
-8.62409
-8.6408
-8.65585
-8.66907
-8.68031
-8.68936
-8.69606
-8.7002
-8.7016
-8.70005
-8.69534
-8.68726
-8.6756
-8.66014
-8.64065
-8.61692
-8.58872
-8.55582
-8.518
-8.47502
-8.42668
-8.37275
-8.31301
-8.24724
-8.17525
-8.09682
-8.01177
-7.91991
-7.8211
-7.71516
-7.60192
-7.48128
-7.3531
-7.21731
-7.07382
-6.92257
-6.76353
-6.59667
-6.422
-6.23956
-6.04942
-5.85165
-5.64639
-5.43377
-5.21398
-4.98723
-4.75375
-4.51381
-4.26772
-4.0158
-3.75841
-3.49593
-3.22877
-2.95735
-2.68213
-2.40355
-2.12211
-1.83828
-1.55258
-1.2655
-0.977545
-0.689204
-0.400942
-0.113185
0.173625
0.459054
0.742692
1.02414
1.30299
1.57892
1.85159
2.1207
2.38603
2.64732
2.90441
3.15713
3.40537
3.64905
3.88813
4.12261
4.35254
4.57798
4.79907
5.01592
5.22873
5.43769
5.64305
5.84506
6.04402
6.24022
6.43402
6.62576
6.81584
7.00462
7.19255
7.38003
7.56751
7.75543
7.94425
8.13439
8.32631
8.52041
8.71707
8.91664
9.11942
9.32568
9.53564
9.74946
9.96717
10.1887
10.4138
10.6422
10.8735
11.1068
11.342
11.5744
11.816
11.9956
-7.59663
-7.60405
-7.61562
-7.62549
-7.633
-7.63911
-7.64435
-7.64906
-7.65349
-7.65789
-7.66243
-7.66726
-7.67247
-7.67815
-7.68438
-7.6912
-7.69865
-7.70678
-7.71561
-7.72517
-7.73548
-7.74656
-7.75842
-7.77108
-7.78454
-7.79881
-7.81388
-7.82974
-7.84638
-7.86379
-7.88193
-7.90078
-7.92032
-7.94053
-7.96137
-7.98282
-8.00484
-8.02742
-8.0505
-8.07408
-8.0981
-8.12255
-8.14739
-8.17258
-8.19807
-8.22384
-8.24982
-8.27597
-8.30222
-8.32852
-8.3548
-8.38098
-8.40698
-8.43273
-8.45813
-8.48307
-8.50746
-8.53119
-8.55412
-8.57615
-8.59713
-8.61692
-8.63538
-8.65236
-8.66768
-8.68119
-8.69272
-8.70207
-8.70906
-8.71351
-8.71521
-8.71396
-8.70956
-8.70178
-8.69043
-8.67527
-8.65609
-8.63265
-8.60475
-8.57214
-8.5346
-8.49191
-8.44384
-8.39017
-8.33068
-8.26516
-8.1934
-8.11519
-8.03034
-7.93869
-7.84004
-7.73426
-7.62117
-7.50064
-7.37256
-7.23684
-7.09338
-6.94214
-6.78306
-6.61614
-6.44138
-6.25881
-6.06849
-5.87053
-5.66502
-5.45213
-5.23203
-5.00493
-4.77107
-4.53072
-4.28418
-4.03178
-3.7739
-3.5109
-3.2432
-2.97124
-2.69546
-2.41632
-2.13432
-1.84996
-1.56375
-1.27617
-0.987731
-0.698947
-0.410288
-0.122172
0.164978
0.450719
0.73465
1.01634
1.29541
1.57149
1.84427
2.11346
2.37882
2.6401
2.8971
3.14969
3.39771
3.64114
3.87989
4.11401
4.3435
4.56846
4.78898
5.00522
5.21732
5.42554
5.63007
5.83121
6.02921
6.22442
6.41714
6.60777
6.79666
6.98422
7.17085
7.35701
7.54311
7.72963
7.917
8.10569
8.29614
8.48878
8.68401
8.88219
9.08365
9.28868
9.49752
9.71033
9.92715
10.1479
10.3723
10.6001
10.8307
11.0631
11.2971
11.5274
11.7663
11.9401
-7.60121
-7.6087
-7.62026
-7.63033
-7.63819
-7.64471
-7.6504
-7.65556
-7.66043
-7.66525
-7.67018
-7.67537
-7.68093
-7.68694
-7.69347
-7.70058
-7.7083
-7.71669
-7.72576
-7.73554
-7.74606
-7.75732
-7.76933
-7.78212
-7.79568
-7.81002
-7.82512
-7.84099
-7.85761
-7.87497
-7.89303
-7.91181
-7.93126
-7.95137
-7.97211
-7.99346
-8.01539
-8.03788
-8.06089
-8.0844
-8.10838
-8.13279
-8.15761
-8.1828
-8.20831
-8.23411
-8.26015
-8.28637
-8.31272
-8.33913
-8.36554
-8.39187
-8.41805
-8.44398
-8.46957
-8.49472
-8.51933
-8.54329
-8.56646
-8.58874
-8.60997
-8.63002
-8.64874
-8.66598
-8.68156
-8.69534
-8.70712
-8.71673
-8.72398
-8.72867
-8.73062
-8.72961
-8.72544
-8.7179
-8.70676
-8.69181
-8.67283
-8.64959
-8.62187
-8.58943
-8.55206
-8.50952
-8.46159
-8.40804
-8.34867
-8.28325
-8.21157
-8.13342
-8.04863
-7.95699
-7.85836
-7.75256
-7.63943
-7.51884
-7.39068
-7.25483
-7.11123
-6.9598
-6.8005
-6.63332
-6.45827
-6.27538
-6.08471
-5.88635
-5.68041
-5.46706
-5.24646
-5.01883
-4.78441
-4.54347
-4.29632
-4.0433
-3.78476
-3.5211
-3.25273
-2.98009
-2.70364
-2.42385
-2.14122
-1.85625
-1.56946
-1.28134
-0.992405
-0.70317
-0.414115
-0.125651
0.161795
0.447803
0.731965
1.01385
1.29306
1.56922
1.84203
2.11119
2.37644
2.63756
2.89434
3.14661
3.39428
3.63727
3.87553
4.10909
4.33795
4.56221
4.78197
4.99738
5.20861
5.41589
5.61943
5.81951
6.01642
6.21048
6.40201
6.59139
6.77899
6.96521
7.15049
7.33524
7.51992
7.70498
7.89089
8.07811
8.2671
8.4583
8.65213
8.84897
9.04918
9.25305
9.46086
9.67274
9.88877
10.1088
10.3327
10.5599
10.7899
11.0216
11.2544
11.4829
11.7195
11.8889
-7.60887
-7.61615
-7.62733
-7.63723
-7.64516
-7.65187
-7.6578
-7.66323
-7.66838
-7.67348
-7.67869
-7.68415
-7.68995
-7.69619
-7.70294
-7.71024
-7.71815
-7.72671
-7.73593
-7.74584
-7.75648
-7.76784
-7.77994
-7.7928
-7.8064
-7.82076
-7.83588
-7.85174
-7.86833
-7.88565
-7.90368
-7.9224
-7.9418
-7.96187
-7.98257
-8.00389
-8.02579
-8.04827
-8.07128
-8.0948
-8.11881
-8.14327
-8.16815
-8.19342
-8.21903
-8.24494
-8.27111
-8.29747
-8.32398
-8.35057
-8.37716
-8.4037
-8.43008
-8.45623
-8.48205
-8.50744
-8.53228
-8.55648
-8.5799
-8.60241
-8.62388
-8.64417
-8.66312
-8.68058
-8.69639
-8.71037
-8.72235
-8.73216
-8.73959
-8.74446
-8.74657
-8.74571
-8.74168
-8.73426
-8.72324
-8.7084
-8.68951
-8.66635
-8.63869
-8.60631
-8.56897
-8.52646
-8.47854
-8.42499
-8.36559
-8.30013
-8.22839
-8.15018
-8.06528
-7.97354
-7.87477
-7.76881
-7.6555
-7.5347
-7.4063
-7.27018
-7.12628
-6.97451
-6.81485
-6.64728
-6.47179
-6.28843
-6.09726
-5.89836
-5.69186
-5.47791
-5.25668
-5.0284
-4.7933
-4.55167
-4.3038
-4.05004
-3.79076
-3.52635
-3.25724
-2.98386
-2.70667
-2.42619
-2.14289
-1.8573
-1.56992
-1.28126
-0.991826
-0.702155
-0.412713
-0.123927
0.163776
0.449991
0.73431
1.01631
1.29556
1.5717
1.84441
2.1134
2.37841
2.63918
2.89555
3.14733
3.39445
3.6368
3.87438
4.10715
4.33519
4.55854
4.77735
4.99174
5.20191
5.40806
5.61044
5.80931
6.00497
6.19773
6.38794
6.57596
6.76217
6.94698
7.13083
7.31412
7.49735
7.68094
7.8654
8.05117
8.23874
8.42856
8.62107
8.81667
9.01572
9.21857
9.42546
9.63656
9.85192
10.0714
10.2948
10.5217
10.7512
10.9822
11.214
11.4409
11.6757
11.8419
-7.61902
-7.62589
-7.63636
-7.64581
-7.65355
-7.66021
-7.66617
-7.67169
-7.67696
-7.6822
-7.68754
-7.69313
-7.69906
-7.70541
-7.71226
-7.71966
-7.72764
-7.73626
-7.74554
-7.75551
-7.76618
-7.77757
-7.7897
-7.80257
-7.81618
-7.83055
-7.84566
-7.86151
-7.87809
-7.8954
-7.91341
-7.93213
-7.95153
-7.97159
-7.99229
-8.01363
-8.03556
-8.05808
-8.08116
-8.10476
-8.12887
-8.15345
-8.17846
-8.20387
-8.22964
-8.25572
-8.28206
-8.30862
-8.33532
-8.36212
-8.38893
-8.41568
-8.44228
-8.46866
-8.4947
-8.52031
-8.54538
-8.56978
-8.5934
-8.61611
-8.63777
-8.65823
-8.67735
-8.69496
-8.7109
-8.72501
-8.7371
-8.747
-8.75451
-8.75945
-8.76161
-8.76079
-8.75678
-8.74938
-8.73835
-8.72349
-8.70457
-8.68136
-8.65364
-8.62119
-8.58376
-8.54114
-8.49311
-8.43943
-8.37989
-8.31426
-8.24235
-8.16394
-8.07883
-7.98685
-7.88783
-7.7816
-7.66799
-7.54687
-7.41811
-7.28162
-7.13731
-6.9851
-6.82497
-6.6569
-6.48088
-6.29696
-6.1052
-5.90568
-5.69853
-5.4839
-5.26198
-5.03297
-4.79714
-4.55475
-4.30612
-4.05159
-3.79153
-3.52634
-3.25645
-2.98231
-2.70438
-2.42319
-2.13922
-1.853
-1.56503
-1.27584
-0.985949
-0.695874
-0.406084
-0.117037
0.170842
0.457155
0.741515
1.02349
1.30264
1.5786
1.85105
2.1197
2.38427
2.64453
2.90029
3.1514
3.39776
3.63929
3.87597
4.10779
4.3348
4.55707
4.77474
4.98794
5.19687
5.40173
5.60279
5.8003
5.99458
6.18592
6.37469
6.56125
6.74599
6.92932
7.11166
7.29348
7.47521
7.65734
7.84035
8.02471
8.2109
8.39941
8.59067
8.78512
8.98313
9.18506
9.39115
9.6016
9.81642
10.0355
10.2586
10.4851
10.7142
10.9447
11.1757
11.4013
11.6346
11.7986
-7.63102
-7.63732
-7.64686
-7.65562
-7.66294
-7.66933
-7.67513
-7.68054
-7.68576
-7.69097
-7.69629
-7.70186
-7.70778
-7.71412
-7.72094
-7.72832
-7.73628
-7.74488
-7.75413
-7.76408
-7.77473
-7.7861
-7.79821
-7.81106
-7.82466
-7.83902
-7.85411
-7.86996
-7.88654
-7.90386
-7.92189
-7.94062
-7.96004
-7.98013
-8.00087
-8.02226
-8.04427
-8.06688
-8.09007
-8.11381
-8.13807
-8.16281
-8.18799
-8.21358
-8.23954
-8.26581
-8.29235
-8.3191
-8.346
-8.373
-8.4
-8.42694
-8.45374
-8.48029
-8.5065
-8.53227
-8.55748
-8.58202
-8.60576
-8.62857
-8.65031
-8.67084
-8.69
-8.70764
-8.7236
-8.7377
-8.74977
-8.75963
-8.76709
-8.77195
-8.77403
-8.77311
-8.76899
-8.76145
-8.75029
-8.73527
-8.71619
-8.69281
-8.6649
-8.63225
-8.59462
-8.55178
-8.50351
-8.44959
-8.3898
-8.32391
-8.25172
-8.17302
-8.0876
-7.9953
-7.89594
-7.78936
-7.67537
-7.55385
-7.42467
-7.28774
-7.14296
-6.99027
-6.82962
-6.66101
-6.48443
-6.29992
-6.10753
-5.90737
-5.69955
-5.48423
-5.26159
-5.03185
-4.79526
-4.5521
-4.30269
-4.04737
-3.78653
-3.52056
-3.24989
-2.97499
-2.69636
-2.41447
-2.12987
-1.84306
-1.55458
-1.26494
-0.974673
-0.684279
-0.394254
-0.105077
0.182834
0.46909
0.753326
1.0351
1.31398
1.58958
1.86159
2.12969
2.39362
2.65317
2.90812
3.15836
3.40376
3.64427
3.87985
4.11052
4.3363
4.55732
4.77365
4.9855
5.19301
5.39645
5.59603
5.79206
5.98482
6.17465
6.36188
6.5469
6.7301
6.9119
7.09272
7.27303
7.45329
7.63397
7.81557
7.99858
8.18348
8.37076
8.5609
8.75432
8.95143
9.15257
9.35803
9.56796
9.78241
10.0012
10.2241
10.4504
10.6793
10.9093
11.1397
11.3643
11.5964
11.759
-7.64423
-7.64986
-7.65833
-7.66623
-7.67295
-7.67888
-7.68431
-7.68942
-7.69439
-7.69938
-7.70452
-7.70992
-7.71567
-7.72187
-7.72856
-7.73582
-7.74367
-7.75217
-7.76134
-7.7712
-7.78178
-7.7931
-7.80515
-7.81797
-7.83153
-7.84585
-7.86093
-7.87676
-7.89334
-7.91065
-7.92869
-7.94745
-7.9669
-7.98705
-8.00786
-8.02934
-8.05146
-8.0742
-8.09753
-8.12143
-8.14585
-8.17076
-8.19611
-8.22187
-8.24798
-8.27441
-8.3011
-8.32799
-8.35503
-8.38215
-8.40927
-8.43632
-8.4632
-8.48983
-8.51609
-8.54189
-8.56711
-8.59164
-8.61534
-8.6381
-8.65976
-8.68019
-8.69924
-8.71674
-8.73254
-8.74648
-8.75836
-8.76801
-8.77525
-8.77989
-8.78172
-8.78055
-8.77617
-8.76837
-8.75693
-8.74164
-8.72227
-8.6986
-8.6704
-8.63745
-8.59952
-8.55638
-8.5078
-8.45356
-8.39345
-8.32723
-8.25471
-8.17568
-8.08992
-7.99726
-7.89753
-7.79056
-7.67617
-7.55423
-7.42462
-7.28723
-7.14198
-6.98879
-6.82763
-6.65848
-6.48133
-6.29623
-6.10324
-5.90244
-5.69397
-5.47797
-5.25464
-5.02418
-4.78687
-4.54297
-4.29281
-4.03675
-3.77517
-3.50847
-3.23709
-2.96152
-2.68224
-2.39977
-2.11463
-1.82735
-1.53846
-1.24849
-0.957969
-0.667392
-0.377296
-0.0881569
0.199609
0.48563
0.76954
1.05092
1.32932
1.60436
1.87571
2.14305
2.40613
2.66474
2.91867
3.16782
3.41207
3.65135
3.88565
4.11497
4.33936
4.55892
4.77377
4.98409
5.19006
5.39191
5.58991
5.78434
5.97549
6.16371
6.34934
6.53277
6.71439
6.89464
7.07394
7.25275
7.43156
7.61083
7.79109
7.97281
8.15651
8.34268
8.5318
8.72432
8.92066
9.12117
9.32613
9.53569
9.74988
9.96854
10.1913
10.4175
10.6463
10.8761
11.106
11.3298
11.5609
11.7228
-7.65813
-7.66303
-7.67036
-7.67728
-7.68322
-7.6885
-7.69336
-7.69798
-7.7025
-7.70708
-7.71185
-7.71692
-7.72238
-7.72831
-7.73477
-7.7418
-7.74947
-7.7578
-7.76681
-7.77654
-7.787
-7.7982
-7.81016
-7.82289
-7.83639
-7.85065
-7.86569
-7.88149
-7.89804
-7.91535
-7.9334
-7.95219
-7.97169
-7.9919
-8.0128
-8.03437
-8.05659
-8.07944
-8.10288
-8.12687
-8.15139
-8.17639
-8.20183
-8.22765
-8.25382
-8.28029
-8.307
-8.3339
-8.36093
-8.38802
-8.4151
-8.44208
-8.46887
-8.49537
-8.5215
-8.54713
-8.57216
-8.59648
-8.61995
-8.64244
-8.66383
-8.68397
-8.7027
-8.71988
-8.73535
-8.74893
-8.76045
-8.76974
-8.77661
-8.78087
-8.78232
-8.78077
-8.77601
-8.76782
-8.75601
-8.74034
-8.72059
-8.69655
-8.66799
-8.63468
-8.59639
-8.55289
-8.50396
-8.44938
-8.38892
-8.32236
-8.24951
-8.17012
-8.08402
-7.991
-7.89092
-7.78357
-7.6688
-7.54647
-7.41646
-7.27864
-7.13295
-6.97932
-6.81769
-6.64804
-6.47039
-6.28476
-6.09122
-5.88986
-5.6808
-5.4642
-5.24025
-5.00917
-4.77122
-4.52668
-4.27588
-4.01919
-3.75697
-3.48966
-3.2177
-2.94159
-2.66181
-2.37891
-2.09339
-1.80581
-1.51668
-1.22655
-0.93593
-0.645376
-0.355414
-0.0665188
0.220896
0.506465
0.789825
1.07058
1.34828
1.62252
1.89297
2.15932
2.42133
2.67876
2.93148
3.17932
3.42221
3.66006
3.89289
4.12068
4.34351
4.56145
4.77468
4.98333
5.18763
5.3878
5.58412
5.77686
5.96635
6.1529
6.3369
6.51872
6.69877
6.87747
7.05527
7.23263
7.41004
7.588
7.76699
7.94754
8.13016
8.31535
8.50359
8.69537
8.89109
9.09113
9.29573
9.50508
9.71917
9.93782
10.1606
10.3869
10.6156
10.8453
11.0748
11.2981
11.5283
11.6903
-7.67282
-7.67701
-7.6832
-7.68904
-7.69404
-7.69844
-7.70248
-7.70634
-7.71016
-7.71411
-7.7183
-7.72285
-7.72783
-7.73334
-7.73941
-7.74611
-7.75347
-7.76152
-7.77028
-7.77979
-7.79004
-7.80107
-7.81287
-7.82545
-7.83881
-7.85296
-7.86789
-7.8836
-7.90008
-7.91733
-7.93533
-7.95408
-7.97356
-7.99376
-8.01465
-8.03621
-8.05841
-8.08122
-8.10461
-8.12854
-8.15297
-8.17787
-8.20318
-8.22888
-8.25489
-8.28118
-8.30769
-8.33437
-8.36116
-8.38799
-8.41478
-8.44144
-8.46788
-8.49402
-8.51974
-8.54496
-8.56955
-8.59341
-8.6164
-8.63841
-8.6593
-8.67893
-8.69715
-8.71381
-8.72875
-8.74182
-8.75282
-8.76159
-8.76795
-8.77171
-8.77267
-8.77064
-8.7654
-8.75676
-8.7445
-8.72839
-8.70824
-8.68379
-8.65484
-8.62114
-8.58249
-8.53863
-8.48937
-8.43446
-8.37369
-8.30683
-8.23366
-8.15398
-8.06757
-7.97426
-7.87387
-7.76621
-7.65113
-7.52849
-7.39814
-7.26
-7.11396
-6.95997
-6.79797
-6.62795
-6.4499
-6.26387
-6.0699
-5.86811
-5.65861
-5.44155
-5.21714
-4.98559
-4.74717
-4.50215
-4.25089
-3.99374
-3.73109
-3.46337