/*--------------------------------*- C++ -*----------------------------------*\
  =========                 |
  \\      /  F ield         | OpenFOAM: The Open Source CFD Toolbox
   \\    /   O peration     | Website:  https://openfoam.org
    \\  /    A nd           | Version:  8
     \\/     M anipulation  |
\*---------------------------------------------------------------------------*/
/*   Windows 32 and 64 bit porting by blueCAPE: http://www.bluecape.com.pt   *\
|  Based on Windows porting (2.0.x v4) by Symscape: http://www.symscape.com   |
\*---------------------------------------------------------------------------*/
FoamFile
{
    version     2.0;
    format      ascii;
    class       surfaceScalarField;
    location    "200";
    object      phi;
}
// * * * * * * * * * * * * * * * * * * * * * * * * * * * * * * * * * * * * * //

dimensions      [0 3 -1 0 0 0 0];

internalField   nonuniform List<scalar> 
24170
(
3.129e-06
5.9401e-08
3.04662e-06
8.23798e-08
2.97353e-06
7.30934e-08
2.90489e-06
6.8635e-08
2.84055e-06
6.43314e-08
2.78322e-06
5.73279e-08
2.73389e-06
4.9328e-08
2.69193e-06
4.19569e-08
2.65625e-06
3.56803e-08
2.62579e-06
3.04543e-08
2.59958e-06
2.62098e-08
2.57677e-06
2.28049e-08
2.5567e-06
2.00724e-08
2.53878e-06
1.79142e-08
2.52263e-06
1.61525e-08
2.50716e-06
1.54641e-08
2.49284e-06
1.43238e-08
2.00881e-08
2.47275e-06
3.45306e-06
2.35858e-08
3.457e-06
7.84374e-08
3.45054e-06
7.95537e-08
3.43908e-06
8.00915e-08
3.4243e-06
7.91101e-08
3.40705e-06
7.45785e-08
3.38782e-06
6.85489e-08
3.36729e-06
6.24862e-08
3.34614e-06
5.6832e-08
3.32495e-06
5.16426e-08
3.3042e-06
4.69504e-08
3.28418e-06
4.28243e-08
3.26508e-06
3.91743e-08
3.24692e-06
3.60664e-08
3.22981e-06
3.32684e-08
3.21368e-06
3.15913e-08
3.19885e-06
2.91473e-08
3.14681e-08
3.18747e-06
3.66816e-06
1.79429e-08
3.6792e-06
6.73963e-08
3.68542e-06
7.33267e-08
3.68946e-06
7.60581e-08
3.69105e-06
7.75136e-08
3.69008e-06
7.55464e-08
3.68694e-06
7.16882e-08
3.68209e-06
6.73308e-08
3.67593e-06
6.29884e-08
3.66879e-06
5.87881e-08
3.66093e-06
5.48064e-08
3.65261e-06
5.11446e-08
3.64401e-06
4.77747e-08
3.63528e-06
4.47916e-08
3.62649e-06
4.20542e-08
3.61802e-06
4.00565e-08
3.6093e-06
3.7871e-08
3.76653e-08
3.6031e-06
3.92585e-06
1.74825e-08
3.93592e-06
5.73258e-08
3.94257e-06
6.66758e-08
3.9481e-06
7.05182e-08
3.95252e-06
7.31005e-08
3.95546e-06
7.26003e-08
3.95712e-06
7.00214e-08
3.95775e-06
6.67011e-08
3.95753e-06
6.3207e-08
3.95661e-06
5.97083e-08
3.95512e-06
5.62948e-08
3.95318e-06
5.30795e-08
3.95089e-06
5.00658e-08
3.94834e-06
4.73386e-08
3.94557e-06
4.48238e-08
3.94285e-06
4.27751e-08
3.93992e-06
4.07975e-08
3.95079e-08
3.93808e-06
4.2082e-06
1.64105e-08
4.21598e-06
4.95412e-08
4.22168e-06
6.09789e-08
4.22678e-06
6.54146e-08
4.23152e-06
6.83543e-08
4.23549e-06
6.86317e-08
4.23865e-06
6.68571e-08
4.24113e-06
6.42292e-08
4.24301e-06
6.13217e-08
4.24439e-06
5.83222e-08
4.24536e-06
5.53282e-08
4.24599e-06
5.24507e-08
4.24633e-06
4.97182e-08
4.24647e-06
4.71964e-08
4.24644e-06
4.4853e-08
4.24641e-06
4.28053e-08
4.24633e-06
4.08735e-08
3.91507e-08
4.24669e-06
4.51071e-06
1.47881e-08
4.51688e-06
4.33682e-08
4.52213e-06
5.5731e-08
4.52694e-06
6.05991e-08
4.53165e-06
6.36438e-08
4.53589e-06
6.43858e-08
4.53956e-06
6.31871e-08
4.54272e-06
6.10729e-08
4.54543e-06
5.86054e-08
4.54777e-06
5.59842e-08
4.54978e-06
5.33172e-08
4.55152e-06
5.07072e-08
4.55304e-06
4.82e-08
4.55439e-06
4.58436e-08
4.55561e-06
4.36283e-08
4.55682e-06
4.15979e-08
4.55803e-06
3.96576e-08
3.77484e-08
4.55943e-06
4.83433e-06
1.31784e-08
4.83963e-06
3.8071e-08
4.84475e-06
5.06075e-08
4.84945e-06
5.58973e-08
4.85408e-06
5.90132e-08
4.85839e-06
6.00715e-08
4.86226e-06
5.9319e-08
4.86571e-06
5.76132e-08
4.86882e-06
5.54967e-08
4.87162e-06
5.31807e-08
4.87416e-06
5.07806e-08
4.87647e-06
4.83929e-08
4.8786e-06
4.60719e-08
4.88059e-06
4.38543e-08
4.88248e-06
4.17403e-08
4.88433e-06
3.97378e-08
4.8862e-06
3.77874e-08
3.58062e-08
4.88815e-06
5.18105e-06
1.17125e-08
5.18575e-06
3.33651e-08
5.19075e-06
4.56064e-08
5.1954e-06
5.12477e-08
5.19998e-06
5.44298e-08
5.20433e-06
5.57155e-08
5.20832e-06
5.53271e-08
5.21197e-06
5.39678e-08
5.21531e-06
5.21502e-08
5.2184e-06
5.00961e-08
5.22125e-06
4.7926e-08
5.22391e-06
4.57317e-08
5.22641e-06
4.35714e-08
5.22879e-06
4.14758e-08
5.23108e-06
3.94494e-08
5.23333e-06
3.74859e-08
5.23557e-06
3.55431e-08
3.35552e-08
5.23782e-06
5.55269e-06
1.03576e-08
5.55689e-06
2.91696e-08
5.56169e-06
4.0801e-08
5.56629e-06
4.66415e-08
5.57085e-06
4.98684e-08
5.57525e-06
5.13142e-08
5.57935e-06
5.12268e-08
5.58315e-06
5.01728e-08
5.58667e-06
4.86219e-08
5.58997e-06
4.68033e-08
5.59305e-06
4.48404e-08
5.59596e-06
4.28226e-08
5.59872e-06
4.08081e-08
5.60137e-06
3.88265e-08
5.60393e-06
3.68844e-08
5.60644e-06
3.49731e-08
5.60892e-06
3.30621e-08
3.11117e-08
5.61137e-06
5.95104e-06
9.09502e-09
5.95478e-06
2.54228e-08
5.95935e-06
3.62295e-08
5.9639e-06
4.20884e-08
5.96845e-06
4.53242e-08
5.97289e-06
4.68733e-08
5.97708e-06
4.7028e-08
5.98101e-06
4.62422e-08
5.9847e-06
4.49332e-08
5.98817e-06
4.33311e-08
5.99145e-06
4.15612e-08
5.99456e-06
3.97099e-08
5.99753e-06
3.78348e-08
6.00039e-06
3.59662e-08
6.00316e-06
3.4113e-08
6.00586e-06
3.22699e-08
6.00851e-06
3.04164e-08
2.85356e-08
6.01108e-06
6.37798e-06
7.9244e-09
6.38134e-06
2.20606e-08
6.38567e-06
3.19029e-08
6.39015e-06
3.76055e-08
6.39467e-06
4.08032e-08
6.39914e-06
4.24052e-08
6.40342e-06
4.27431e-08
6.40747e-06
4.21867e-08
6.41131e-06
4.10961e-08
6.41494e-06
3.96944e-08
6.4184e-06
3.81067e-08
6.42169e-06
3.64162e-08
6.42484e-06
3.46793e-08
6.42788e-06
3.29274e-08
6.43082e-06
3.11729e-08
6.43367e-06
2.94153e-08
6.43644e-06
2.76438e-08
2.58583e-08
6.43912e-06
5.74176e-06
6.99869e-09
5.74434e-06
1.9478e-08
5.74781e-06
2.84347e-08
5.75153e-06
3.38794e-08
5.75533e-06
3.70031e-08
5.75912e-06
3.86159e-08
5.76279e-06
3.90642e-08
5.76631e-06
3.86694e-08
5.76966e-06
3.77452e-08
5.77285e-06
3.65013e-08
5.7759e-06
3.50604e-08
5.77881e-06
3.35032e-08
5.7816e-06
3.18845e-08
5.78429e-06
3.02365e-08
5.78689e-06
2.85747e-08
5.7894e-06
2.69034e-08
5.79183e-06
2.5218e-08
2.35301e-08
5.79415e-06
6.99914e-06
6.01564e-09
7.00187e-06
1.67454e-08
7.00563e-06
2.46718e-08
7.00979e-06
2.97145e-08
7.01411e-06
3.26855e-08
7.01846e-06
3.42648e-08
7.02273e-06
3.47939e-08
7.02685e-06
3.4548e-08
7.0308e-06
3.37913e-08
7.03459e-06
3.27141e-08
7.03821e-06
3.14338e-08
7.04169e-06
3.00269e-08
7.04502e-06
2.85462e-08
7.04823e-06
2.70247e-08
7.05133e-06
2.54806e-08
7.05431e-06
2.39234e-08
7.05717e-06
2.23538e-08
2.07929e-08
7.05991e-06
8.53188e-06
4.98298e-09
8.53473e-06
1.38899e-08
8.53876e-06
2.06416e-08
8.54336e-06
2.51178e-08
8.54821e-06
2.78317e-08
8.55316e-06
2.9314e-08
8.55807e-06
2.98777e-08
8.56287e-06
2.97542e-08
8.5675e-06
2.91568e-08
8.57196e-06
2.82504e-08
8.57625e-06
2.71424e-08
8.58037e-06
2.5904e-08
8.58433e-06
2.45844e-08
8.58814e-06
2.32165e-08
8.5918e-06
2.18209e-08
8.59531e-06
2.04109e-08
8.59867e-06
1.89925e-08
1.7591e-08
8.60187e-06
1.04003e-05
3.90962e-09
1.04032e-05
1.09312e-08
1.04075e-05
1.63659e-08
1.04125e-05
2.00977e-08
1.04179e-05
2.24253e-08
1.04235e-05
2.37263e-08
1.04291e-05
2.42616e-08
1.04347e-05
2.42184e-08
1.04401e-05
2.37613e-08
1.04453e-05
2.30231e-08
1.04503e-05
2.20968e-08
1.04552e-05
2.1045e-08
1.04599e-05
1.99122e-08
1.04644e-05
1.87291e-08
1.04687e-05
1.75177e-08
1.04728e-05
1.62929e-08
1.04767e-05
1.50641e-08
1.38582e-08
1.04804e-05
1.26779e-05
2.80051e-09
1.2681e-05
7.86348e-09
1.26855e-05
1.18429e-08
1.26909e-05
1.46483e-08
1.26969e-05
1.64382e-08
1.27032e-05
1.74525e-08
1.27096e-05
1.7881e-08
1.27159e-05
1.7863e-08
1.27222e-05
1.75159e-08
1.27283e-05
1.69372e-08
1.27342e-05
1.61989e-08
1.27398e-05
1.53523e-08
1.27453e-05
1.44337e-08
1.27506e-05
1.34704e-08
1.27556e-05
1.24817e-08
1.27604e-05
1.14835e-08
1.2765e-05
1.04848e-08
9.51247e-09
1.27693e-05
1.54543e-05
1.64464e-09
1.54576e-05
4.64057e-09
1.54624e-05
7.01464e-09
1.54683e-05
8.70917e-09
1.5475e-05
9.79637e-09
1.5482e-05
1.04019e-08
1.54893e-05
1.06352e-08
1.54965e-05
1.05802e-08
1.55037e-05
1.03071e-08
1.55108e-05
9.87541e-09
1.55177e-05
9.33162e-09
1.55243e-05
8.70995e-09
1.55307e-05
8.03598e-09
1.55368e-05
7.32942e-09
1.55427e-05
6.60554e-09
1.55483e-05
5.87692e-09
1.55537e-05
5.15125e-09
4.4516e-09
1.55587e-05
1.88389e-05
4.01906e-10
1.88424e-05
1.13758e-09
1.88477e-05
1.70704e-09
1.88543e-05
2.08897e-09
1.88618e-05
2.30154e-09
1.88698e-05
2.37294e-09
1.88781e-05
2.32498e-09
1.88865e-05
2.17737e-09
1.88949e-05
1.9501e-09
1.89031e-05
1.66137e-09
1.89111e-05
1.3263e-09
1.89189e-05
9.5739e-10
1.89263e-05
5.65323e-10
1.89335e-05
1.59259e-10
1.89403e-05
-2.52972e-10
1.89469e-05
-6.642e-10
1.89531e-05
-1.07027e-09
-1.45355e-09
1.8959e-05
2.29648e-05
-1.02919e-09
2.29688e-05
-2.93485e-09
2.2975e-05
-4.49972e-09
2.29828e-05
-5.68895e-09
2.29916e-05
-6.52454e-09
2.30011e-05
-7.09234e-09
2.30109e-05
-7.47999e-09
2.30208e-05
-7.74184e-09
2.30307e-05
-7.91504e-09
2.30404e-05
-8.03046e-09
2.30498e-05
-8.11242e-09
2.30589e-05
-8.17504e-09
2.30677e-05
-8.22676e-09
2.30762e-05
-8.27149e-09
2.30842e-05
-8.31175e-09
2.30919e-05
-8.3472e-09
2.30992e-05
-8.37886e-09
-8.39545e-09
2.31061e-05
1.68118e-05
-2.15292e-09
1.6815e-05
-6.10705e-09
1.68198e-05
-9.33249e-09
1.68258e-05
-1.16909e-08
1.68325e-05
-1.32424e-08
1.68397e-05
-1.4215e-08
1.6847e-05
-1.47957e-08
1.68543e-05
-1.5089e-08
1.68616e-05
-1.5173e-08
1.68687e-05
-1.51209e-08
1.68755e-05
-1.49844e-08
1.68822e-05
-1.47975e-08
1.68885e-05
-1.45799e-08
1.68946e-05
-1.43466e-08
1.69004e-05
-1.41051e-08
1.69059e-05
-1.3861e-08
1.69111e-05
-1.36167e-08
-1.33662e-08
1.69161e-05
1.46356e-05
-3.23219e-09
1.46387e-05
-9.19561e-09
1.46434e-05
-1.40498e-08
1.46492e-05
-1.74391e-08
1.46555e-05
-1.95354e-08
1.46621e-05
-2.07882e-08
1.46687e-05
-2.14678e-08
1.46753e-05
-2.171e-08
1.46818e-05
-2.16462e-08
1.46881e-05
-2.13925e-08
1.46941e-05
-2.10251e-08
1.46999e-05
-2.05881e-08
1.47054e-05
-2.01123e-08
1.47107e-05
-1.96184e-08
1.47157e-05
-1.91199e-08
1.47205e-05
-1.8624e-08
1.4725e-05
-1.81359e-08
-1.76509e-08
1.47293e-05
1.27411e-05
-4.2428e-09
1.27443e-05
-1.23249e-08
1.27491e-05
-1.88834e-08
1.27547e-05
-2.30894e-08
1.27607e-05
-2.55215e-08
1.27669e-05
-2.69535e-08
1.27731e-05
-2.7648e-08
1.27791e-05
-2.77545e-08
1.27849e-05
-2.74801e-08
1.27905e-05
-2.69901e-08
1.27959e-05
-2.63742e-08
1.2801e-05
-2.56839e-08
1.28058e-05
-2.49564e-08
1.28104e-05
-2.42171e-08
1.28148e-05
-2.34818e-08
1.28189e-05
-2.27582e-08
1.28228e-05
-2.20517e-08
-2.13588e-08
1.28265e-05
1.10918e-05
-5.0873e-09
1.1095e-05
-1.55484e-08
1.11001e-05
-2.40118e-08
1.11057e-05
-2.87175e-08
1.11115e-05
-3.12616e-08
1.11173e-05
-3.27728e-08
1.1123e-05
-3.33825e-08
1.11286e-05
-3.3273e-08
1.11338e-05
-3.27467e-08
1.11388e-05
-3.20011e-08
1.11436e-05
-3.11279e-08
1.11481e-05
-3.01839e-08
1.11523e-05
-2.9212e-08
1.11564e-05
-2.82411e-08
1.11602e-05
-2.72859e-08
1.11637e-05
-2.63551e-08
1.11671e-05
-2.54519e-08
-2.45747e-08
1.11704e-05
9.65582e-06
-5.69499e-09
9.65925e-06
-1.89738e-08
9.66459e-06
-2.93592e-08
9.67009e-06
-3.4217e-08
9.67565e-06
-3.68231e-08
9.68121e-06
-3.83358e-08
9.68655e-06
-3.87195e-08
9.69158e-06
-3.83053e-08
9.69633e-06
-3.74963e-08
9.70081e-06
-3.64865e-08
9.70503e-06
-3.53548e-08
9.70901e-06
-3.41609e-08
9.71275e-06
-3.29524e-08
9.71626e-06
-3.17584e-08
9.71957e-06
-3.05942e-08
9.72268e-06
-2.94668e-08
9.72561e-06
-2.83784e-08
-2.73253e-08
9.72836e-06
8.40532e-06
-5.66597e-09
8.40964e-06
-2.32898e-08
8.41487e-06
-3.45958e-08
8.4199e-06
-3.92467e-08
8.42527e-06
-4.21914e-08
8.43068e-06
-4.37465e-08
8.43576e-06
-4.3808e-08
8.44047e-06
-4.30145e-08
8.44484e-06
-4.18686e-08
8.4489e-06
-4.05467e-08
8.45266e-06
-3.91184e-08
8.45615e-06
-3.76461e-08
8.45937e-06
-3.61793e-08
8.46236e-06
-3.47457e-08
8.46512e-06
-3.33603e-08
8.46769e-06
-3.20294e-08
8.47006e-06
-3.07551e-08
-2.95334e-08
8.47227e-06
7.31455e-06
-2.92849e-09
7.32119e-06
-2.9934e-08
7.32674e-06
-4.01482e-08
7.33169e-06
-4.41997e-08
7.33709e-06
-4.7591e-08
7.34241e-06
-4.90694e-08
7.34729e-06
-4.8688e-08
7.35171e-06
-4.74296e-08
7.35568e-06
-4.58489e-08
7.35924e-06
-4.41047e-08
7.3624e-06
-4.22772e-08
7.36519e-06
-4.04397e-08
7.36765e-06
-3.8644e-08
7.36982e-06
-3.69145e-08
7.37173e-06
-3.52665e-08
7.3734e-06
-3.37027e-08
7.37487e-06
-3.22234e-08
-3.08193e-08
7.37615e-06
6.36245e-06
4.68719e-09
6.37189e-06
-3.93767e-08
6.37932e-06
-4.75764e-08
6.38596e-06
-5.0842e-08
6.39224e-06
-5.38745e-08
6.39756e-06
-5.43838e-08
6.40185e-06
-5.29843e-08
6.40533e-06
-5.09119e-08
6.40813e-06
-4.86505e-08
6.41032e-06
-4.62912e-08
6.41195e-06
-4.39117e-08
6.4131e-06
-4.15886e-08
6.41383e-06
-3.93728e-08
6.41419e-06
-3.72823e-08
6.41426e-06
-3.5331e-08
6.41407e-06
-3.3515e-08
6.41368e-06
-3.18352e-08
-3.02721e-08
6.41313e-06
5.5412e-06
8.94928e-09
5.55032e-06
-4.85006e-08
5.55834e-06
-5.55957e-08
5.56604e-06
-5.85454e-08
5.57251e-06
-6.03375e-08
5.57683e-06
-5.871e-08
5.57907e-06
-5.52274e-08
5.57963e-06
-5.14729e-08
5.57888e-06
-4.78987e-08
5.5771e-06
-4.45081e-08
5.5745e-06
-4.132e-08
5.57129e-06
-3.8377e-08
5.5676e-06
-3.56872e-08
5.56356e-06
-3.32424e-08
5.55927e-06
-3.10396e-08
5.55482e-06
-2.90618e-08
5.55029e-06
-2.7311e-08
-2.57376e-08
5.54576e-06
4.86004e-06
-2.34871e-08
4.86539e-06
-5.38437e-08
4.86524e-06
-5.54515e-08
4.86217e-06
-5.54774e-08
4.857e-06
-5.51685e-08
4.8495e-06
-5.12109e-08
4.8398e-06
-4.55327e-08
4.82841e-06
-4.00811e-08
4.81584e-06
-3.53269e-08
4.80256e-06
-3.12315e-08
4.78896e-06
-2.77238e-08
4.77532e-06
-2.47408e-08
4.76184e-06
-2.2205e-08
4.74864e-06
-2.00451e-08
4.73582e-06
-1.82149e-08
4.72343e-06
-1.66815e-08
4.71161e-06
-1.54825e-08
-1.51375e-08
4.701e-06
4.17919e-06
4.12535e-06
4.06989e-06
4.01442e-06
3.95925e-06
3.90804e-06
3.8625e-06
3.82242e-06
3.7871e-06
3.75586e-06
3.72814e-06
3.7034e-06
3.68119e-06
3.66115e-06
3.64293e-06
3.62625e-06
3.61077e-06
3.59563e-06
1.48001e-08
-1.48448e-08
2.8459e-08
-1.3728e-08
3.56471e-08
-7.23629e-09
3.57865e-08
-1.89768e-10
2.97323e-08
6.01863e-09
1.88171e-08
1.08721e-08
4.37607e-09
1.44134e-08
-1.25877e-08
1.69255e-08
-3.13315e-08
1.87222e-08
-5.13992e-08
2.0034e-08
-7.24556e-08
2.1039e-08
-9.43436e-08
2.18575e-08
-1.1692e-07
2.2562e-08
-1.40139e-07
2.31916e-08
-1.63919e-07
2.37692e-08
-1.88253e-07
2.43087e-08
-2.13087e-07
2.48263e-08
-2.38454e-07
2.53434e-08
-2.64351e-07
2.58893e-08
-2.90871e-07
2.64974e-08
-3.18091e-07
2.72132e-08
-3.46189e-07
2.80761e-08
-3.75263e-07
2.90655e-08
-4.05494e-07
3.02104e-08
-4.37091e-07
3.15868e-08
-4.68764e-07
3.1653e-08
-4.98244e-07
2.94698e-08
-5.27298e-07
2.9032e-08
-5.58957e-07
3.1646e-08
-5.93544e-07
3.45629e-08
-6.32126e-07
3.85692e-08
-6.77363e-07
4.52069e-08
-7.20208e-07
4.28276e-08
-7.58302e-07
3.80585e-08
-8.0157e-07
4.32569e-08
-8.4528e-07
4.36807e-08
-8.85355e-07
4.00693e-08
-9.25003e-07
3.96221e-08
-9.67107e-07
4.21001e-08
-1.00963e-06
4.25001e-08
-1.05237e-06
4.27385e-08
-1.09529e-06
4.29004e-08
-1.13829e-06
4.29981e-08
-1.18133e-06
4.30213e-08
-1.22432e-06
4.29883e-08
-1.26724e-06
4.29097e-08
-1.31004e-06
4.28008e-08
-1.35272e-06
4.26674e-08
-1.39524e-06
4.25167e-08
-1.43761e-06
4.23499e-08
-1.47978e-06
4.21706e-08
-1.52178e-06
4.19767e-08
-1.56355e-06
4.17702e-08
-1.60513e-06
4.15479e-08
-1.64644e-06
4.13108e-08
-1.68752e-06
4.10541e-08
-1.7283e-06
4.07785e-08
-1.76881e-06
4.04794e-08
-1.80897e-06
4.01573e-08
-1.84879e-06
3.98069e-08
-1.88823e-06
3.9429e-08
-1.92726e-06
3.9019e-08
-1.96584e-06
3.85776e-08
-2.00395e-06
3.80995e-08
-2.04153e-06
3.75858e-08
-2.07857e-06
3.70316e-08
-2.11501e-06
3.64385e-08
-2.15082e-06
3.58017e-08
-2.18593e-06
3.51234e-08
-2.22034e-06
3.43988e-08
-2.25396e-06
3.36304e-08
-2.28678e-06
3.28134e-08
-2.31872e-06
3.19504e-08
-2.34977e-06
3.10368e-08
-2.37983e-06
3.00756e-08
-2.40891e-06
2.90621e-08
-2.4369e-06
2.80001e-08
-2.4638e-06
2.68857e-08
-2.48951e-06
2.57223e-08
-2.51402e-06
2.45049e-08
-2.53725e-06
2.32366e-08
-2.55916e-06
2.19129e-08
-2.57968e-06
2.05363e-08
-2.59877e-06
1.91008e-08
-2.61636e-06
1.7608e-08
-2.63241e-06
1.60516e-08
-2.64681e-06
1.44312e-08
-2.65953e-06
1.27383e-08
-2.67046e-06
1.09678e-08
-2.67953e-06
9.10746e-09
-2.68663e-06
7.13993e-09
-2.69166e-06
5.05035e-09
-2.69449e-06
2.84521e-09
-2.69507e-06
5.91611e-10
-2.69355e-06
-1.50149e-09
-2.69014e-06
-3.39831e-09
-2.68489e-06
-5.24609e-09
-2.67779e-06
-7.08592e-09
-2.66885e-06
-8.93514e-09
-2.65805e-06
-1.07967e-08
-2.64537e-06
-1.26688e-08
-2.63081e-06
-1.4549e-08
-2.61437e-06
-1.64331e-08
-2.59603e-06
-1.83177e-08
-2.57581e-06
-2.01985e-08
-2.55372e-06
-2.20716e-08
-2.52976e-06
-2.39327e-08
-2.50394e-06
-2.57767e-08
-2.47631e-06
-2.75995e-08
-2.44687e-06
-2.93951e-08
-2.41567e-06
-3.11599e-08
-2.38274e-06
-3.28864e-08
-2.34813e-06
-3.45719e-08
-2.31188e-06
-3.62079e-08
-2.27405e-06
-3.77925e-08
-2.23469e-06
-3.93171e-08
-2.19387e-06
-4.07804e-08
-2.15166e-06
-4.21735e-08
-2.10814e-06
-4.34949e-08
-2.06338e-06
-4.47348e-08
-2.01745e-06
-4.58963e-08
-1.97042e-06
-4.69789e-08
-1.92239e-06
-4.7985e-08
-1.87344e-06
-4.89029e-08
-1.82368e-06
-4.97313e-08
-1.77321e-06
-5.04651e-08
-1.7221e-06
-5.11198e-08
-1.67045e-06
-5.168e-08
-1.61836e-06
-5.21487e-08
-1.56591e-06
-5.25165e-08
-1.51323e-06
-5.2789e-08
-1.46038e-06
-5.29588e-08
-1.40749e-06
-5.3031e-08
-1.35464e-06
-5.30021e-08
-1.30193e-06
-5.28763e-08
-1.24944e-06
-5.26552e-08
-1.19726e-06
-5.23383e-08
-1.14547e-06
-5.19277e-08
-1.09416e-06
-5.142e-08
-1.04339e-06
-5.08309e-08
-9.93248e-07
-5.01703e-08
-9.4379e-07
-4.94585e-08
-8.95068e-07
-4.87007e-08
-8.47117e-07
-4.79064e-08
-7.99976e-07
-4.70743e-08
-7.53668e-07
-4.62182e-08
-7.08215e-07
-4.53399e-08
-6.63622e-07
-4.44556e-08
-6.19893e-07
-4.35658e-08
-5.77015e-07
-4.26882e-08
-5.3497e-07
-4.18252e-08
-4.93725e-07
-4.09962e-08
-4.53245e-07
-4.02015e-08
-4.13475e-07
-3.94609e-08
-3.74359e-07
-3.87793e-08
-3.35818e-07
-3.81754e-08
-2.97781e-07
-3.76474e-08
-2.60147e-07
-3.72205e-08
-2.22818e-07
-3.68967e-08
-1.85681e-07
-3.66835e-08
-1.48621e-07
-3.65942e-08
-1.11462e-07
-3.66778e-08
-7.41025e-08
-3.68721e-08
-3.64957e-08
-3.71097e-08
1.29949e-09
-3.72998e-08
3.90801e-08
-3.72825e-08
7.68385e-08
-3.7278e-08
1.15064e-07
-3.77562e-08
1.54302e-07
-3.87934e-08
1.95011e-07
-4.02768e-08
2.37532e-07
-4.21162e-08
2.82136e-07
-4.42131e-08
3.28989e-07
-4.64936e-08
3.7819e-07
-4.88578e-08
4.29637e-07
-5.11406e-08
4.82932e-07
-5.30093e-08
5.37029e-07
-5.38513e-08
5.8917e-07
-5.19172e-08
6.33217e-07
-4.38574e-08
1.83219e-09
6.31564e-07
7.98206e-09
-2.28661e-08
8.03847e-09
-1.3832e-08
3.31622e-09
-2.54199e-09
-4.65287e-09
7.75378e-09
-1.54165e-08
1.67637e-08
-2.89116e-08
2.43465e-08
-4.50083e-08
3.0495e-08
-6.34557e-08
3.5354e-08
-8.39071e-08
3.91602e-08
-1.06061e-07
4.21698e-08
-1.29646e-07
4.46126e-08
-1.54478e-07
4.6672e-08
-1.8041e-07
4.8483e-08
-2.07375e-07
5.01412e-08
-2.35329e-07
5.17145e-08
-2.64289e-07
5.32537e-08
-2.94272e-07
5.48019e-08
-3.25339e-07
5.63971e-08
-3.57532e-07
5.80751e-08
-3.90921e-07
5.98734e-08
-4.2555e-07
6.18349e-08
-4.61472e-07
6.39867e-08
-4.98708e-07
6.62937e-08
-5.37151e-07
6.86414e-08
-5.764e-07
7.08281e-08
-6.17129e-07
7.23705e-08
-6.60903e-07
7.32357e-08
-7.06468e-07
7.45834e-08
-7.51712e-07
7.68802e-08
-7.96857e-07
7.96928e-08
-8.40995e-07
8.2695e-08
-8.80995e-07
8.51889e-08
-9.23515e-07
8.53356e-08
-9.6997e-07
8.4497e-08
-1.01192e-06
8.52005e-08
-1.05316e-06
8.49022e-08
-1.09684e-06
8.37399e-08
-1.14052e-06
8.32913e-08
-1.182e-06
8.3573e-08
-1.22305e-06
8.35406e-08
-1.26366e-06
8.3346e-08
-1.30386e-06
8.30862e-08
-1.34365e-06
8.27871e-08
-1.38309e-06
8.2455e-08
-1.4222e-06
8.20925e-08
-1.461e-06
8.17024e-08
-1.49949e-06
8.12886e-08
-1.53768e-06
8.08534e-08
-1.57556e-06
8.03987e-08
-1.61314e-06
7.99239e-08
-1.65041e-06
7.94283e-08
-1.68735e-06
7.89096e-08
-1.72395e-06
7.83657e-08
-1.7602e-06
7.77929e-08
-1.79609e-06
7.7188e-08
-1.83159e-06
7.65465e-08
-1.86668e-06
7.58652e-08
-1.90135e-06
7.51395e-08
-1.93557e-06
7.43658e-08
-1.96931e-06
7.35395e-08
-2.00255e-06
7.26578e-08
-2.03525e-06
7.17164e-08
-2.06739e-06
7.07123e-08
-2.09894e-06
6.96413e-08
-2.12985e-06
6.8501e-08
-2.16011e-06
6.72877e-08
-2.18967e-06
6.59996e-08
-2.21851e-06
6.46335e-08
-2.24657e-06
6.31879e-08
-2.27384e-06
6.16602e-08
-2.30025e-06
6.00492e-08
-2.32579e-06
5.83523e-08
-2.35041e-06
5.6569e-08
-2.37407e-06
5.46967e-08
-2.39673e-06
5.27353e-08
-2.41835e-06
5.06829e-08
-2.43889e-06
4.85402e-08
-2.45831e-06
4.63056e-08
-2.47657e-06
4.39794e-08
-2.49362e-06
4.15596e-08
-2.50942e-06
3.90469e-08
-2.52395e-06
3.64395e-08
-2.53714e-06
3.37376e-08
-2.54897e-06
3.09392e-08
-2.5594e-06
2.8045e-08
-2.56839e-06
2.5053e-08
-2.57591e-06
2.19638e-08
-2.58193e-06
1.8776e-08
-2.58643e-06
1.54912e-08
-2.58941e-06
1.21109e-08
-2.5909e-06
8.6445e-09
-2.59095e-06
5.11699e-09
-2.58967e-06
1.56973e-09
-2.58711e-06
-1.9577e-09
-2.58312e-06
-5.48012e-09
-2.57748e-06
-9.03382e-09
-2.5701e-06
-1.26217e-08
-2.56094e-06
-1.62411e-08
-2.54998e-06
-1.98917e-08
-2.5372e-06
-2.35698e-08
-2.5226e-06
-2.72697e-08
-2.50616e-06
-3.09847e-08
-2.48788e-06
-3.4707e-08
-2.46775e-06
-3.8429e-08
-2.4458e-06
-4.21423e-08
-2.42201e-06
-4.58386e-08
-2.39642e-06
-4.95086e-08
-2.36903e-06
-5.31434e-08
-2.33987e-06
-5.67328e-08
-2.30898e-06
-6.0267e-08
-2.27637e-06
-6.37356e-08
-2.2421e-06
-6.7128e-08
-2.20622e-06
-7.04338e-08
-2.16876e-06
-7.36419e-08
-2.12978e-06
-7.67421e-08
-2.08935e-06
-7.97239e-08
-2.04753e-06
-8.25779e-08
-2.00439e-06
-8.52939e-08
-1.96e-06
-8.78627e-08
-1.91445e-06
-9.02739e-08
-1.8678e-06
-9.25225e-08
-1.82014e-06
-9.46064e-08
-1.77156e-06
-9.65311e-08
-1.72215e-06
-9.82876e-08
-1.67201e-06
-9.98598e-08
-1.62122e-06
-1.01247e-07
-1.56988e-06
-1.02464e-07
-1.51808e-06
-1.03497e-07
-1.46591e-06
-1.04344e-07
-1.41348e-06
-1.04996e-07
-1.36087e-06
-1.05455e-07
-1.30817e-06
-1.05715e-07
-1.2555e-06
-1.05781e-07
-1.20293e-06
-1.05652e-07
-1.15056e-06
-1.05335e-07
-1.09847e-06
-1.04832e-07
-1.04674e-06
-1.0415e-07
-9.95451e-07
-1.0329e-07
-9.44661e-07
-1.02261e-07
-8.94442e-07
-1.01076e-07
-8.44863e-07
-9.9762e-08
-7.95975e-07
-9.834e-08
-7.47829e-07
-9.68353e-08
-7.00453e-07
-9.52535e-08
-6.53878e-07
-9.36156e-08
-6.08115e-07
-9.19283e-08
-5.63178e-07
-9.0219e-08
-5.19061e-07
-8.84957e-08
-4.75757e-07
-8.67868e-08
-4.33241e-07
-8.51001e-08
-3.91485e-07
-8.34695e-08
-3.50443e-07
-8.19041e-08
-3.10067e-07
-8.04367e-08
-2.70287e-07
-7.90755e-08
-2.31034e-07
-7.78624e-08
-1.92213e-07
-7.68035e-08
-1.53731e-07
-7.59325e-08
-1.15469e-07
-7.52658e-08
-7.73037e-08
-7.48437e-08
-3.90981e-08
-7.46537e-08
-7.38538e-10
-7.47208e-08
3.78589e-08
-7.50284e-08
7.6816e-08
-7.55895e-08
1.16395e-07
-7.64406e-08
1.56911e-07
-7.7579e-08
1.98769e-07
-7.88981e-08
2.42243e-07
-8.05199e-08
2.87425e-07
-8.27055e-08
3.34432e-07
-8.55787e-08
3.83464e-07
-8.90878e-08
4.34694e-07
-9.31386e-08
4.88267e-07
-9.7582e-08
5.4423e-07
-1.02267e-07
6.02521e-07
-1.06966e-07
6.62873e-07
-1.11326e-07
7.2475e-07
-1.14733e-07
7.86941e-07
-1.15906e-07
8.47684e-07
-1.12541e-07
9.01567e-07
-9.76356e-08
-4.8308e-08
9.51801e-07
-3.40781e-09
-1.94881e-08
-1.28782e-08
-4.39304e-09
-2.46604e-08
9.22285e-09
-3.79595e-08
2.10373e-08
-5.26159e-08
3.14086e-08
-6.87267e-08
4.04442e-08
-8.64307e-08
4.8189e-08
-1.05816e-07
5.47268e-08
-1.2687e-07
6.02044e-08
-1.49523e-07
6.48101e-08
-1.7366e-07
6.8741e-08
-1.99179e-07
7.21783e-08
-2.25979e-07
7.52748e-08
-2.54002e-07
7.81528e-08
-2.83202e-07
8.09073e-08
-3.13571e-07
8.36118e-08
-3.45099e-07
8.6324e-08
-3.778e-07
8.90885e-08
-4.11669e-07
9.19385e-08
-4.46699e-07
9.48945e-08
-4.82827e-07
9.79576e-08
-5.19944e-07
1.01095e-07
-5.57886e-07
1.04231e-07
-5.96492e-07
1.0724e-07
-6.35626e-07
1.09957e-07
-6.75487e-07
1.12224e-07
-7.16304e-07
1.14047e-07
-7.57528e-07
1.15799e-07
-7.98285e-07
1.17631e-07
-8.3805e-07
1.19448e-07
-8.76456e-07
1.21093e-07
-9.13452e-07
1.22175e-07
-9.5062e-07
1.22495e-07
-9.88452e-07
1.22318e-07
-1.02537e-06
1.22114e-07
-1.06208e-06
1.21602e-07
-1.09926e-06
1.20912e-07
-1.13638e-06
1.20399e-07
-1.17282e-06
1.20012e-07
-1.20883e-06
1.19544e-07
-1.24451e-06
1.19017e-07
-1.27989e-06
1.18461e-07
-1.31499e-06
1.17888e-07
-1.34984e-06
1.173e-07
-1.38445e-06
1.16698e-07
-1.41883e-06
1.16081e-07
-1.45299e-06
1.15445e-07
-1.48693e-06
1.1479e-07
-1.52065e-06
1.14112e-07
-1.55413e-06
1.13409e-07
-1.58738e-06
1.12676e-07
-1.62039e-06
1.1191e-07
-1.65313e-06
1.11105e-07
-1.6856e-06
1.10256e-07
-1.71777e-06
1.09358e-07
-1.74964e-06
1.08406e-07
-1.78117e-06
1.07393e-07
-1.81235e-06
1.06314e-07
-1.84315e-06
1.05164e-07
-1.87356e-06
1.03936e-07
-1.90353e-06
1.02626e-07
-1.93305e-06
1.01229e-07
-1.96208e-06
9.97404e-08
-1.9906e-06
9.81547e-08
-2.01857e-06
9.6468e-08
-2.04596e-06
9.46762e-08
-2.07274e-06
9.27757e-08
-2.09887e-06
9.07631e-08
-2.12432e-06
8.86355e-08
-2.14905e-06
8.63897e-08
-2.17302e-06
8.40234e-08
-2.1962e-06
8.1534e-08
-2.21855e-06
7.89195e-08
-2.24003e-06
7.61779e-08
-2.2606e-06
7.33078e-08
-2.28023e-06
7.03077e-08
-2.29886e-06
6.71771e-08
-2.31647e-06
6.39151e-08
-2.33301e-06
6.05212e-08
-2.34844e-06
5.69946e-08
-2.36273e-06
5.33354e-08
-2.37583e-06
4.95432e-08
-2.3877e-06
4.56186e-08
-2.39832e-06
4.15617e-08
-2.40765e-06
3.73742e-08
-2.41564e-06
3.30574e-08
-2.42229e-06
2.86144e-08
-2.42755e-06
2.40489e-08
-2.43141e-06
1.9367e-08
-2.43386e-06
1.45774e-08
-2.4349e-06
9.69378e-09
-2.43451e-06
4.73714e-09
-2.43267e-06
-2.70889e-10
-2.4293e-06
-5.32328e-09
-2.42433e-06
-1.0441e-08
-2.41772e-06
-1.56392e-08
-2.40943e-06
-2.09096e-08
-2.39943e-06
-2.62419e-08
-2.38769e-06
-3.16274e-08
-2.37421e-06
-3.70564e-08
-2.35895e-06
-4.25189e-08
-2.34193e-06
-4.80035e-08
-2.32313e-06
-5.34989e-08
-2.30256e-06
-5.89929e-08
-2.28022e-06
-6.44729e-08
-2.25612e-06
-6.99261e-08
-2.23028e-06
-7.53386e-08
-2.20271e-06
-8.06968e-08
-2.17344e-06
-8.59854e-08
-2.1425e-06
-9.119e-08
-2.10992e-06
-9.62945e-08
-2.07575e-06
-1.01284e-07
-2.04002e-06
-1.06142e-07
-2.00279e-06
-1.10853e-07
-1.96411e-06
-1.15401e-07
-1.92405e-06
-1.19771e-07
-1.88267e-06
-1.23948e-07
-1.84003e-06
-1.2792e-07
-1.79621e-06
-1.3167e-07
-1.75128e-06
-1.35187e-07
-1.70533e-06
-1.38459e-07
-1.65843e-06
-1.41482e-07
-1.61068e-06
-1.44259e-07
-1.56216e-06
-1.46789e-07
-1.51296e-06
-1.49047e-07
-1.46317e-06
-1.51029e-07
-1.41289e-06
-1.52749e-07
-1.36219e-06
-1.54201e-07
-1.31118e-06
-1.55374e-07
-1.25994e-06
-1.56264e-07
-1.20857e-06
-1.56867e-07
-1.15714e-06
-1.57182e-07
-1.10576e-06
-1.57211e-07
-1.05451e-06
-1.56958e-07
-1.00348e-06
-1.5643e-07
-9.52731e-07
-1.55636e-07
-9.02351e-07
-1.54585e-07
-8.52402e-07
-1.53285e-07
-8.02944e-07
-1.51749e-07
-7.5404e-07
-1.49999e-07
-7.05744e-07
-1.48065e-07
-6.58107e-07
-1.4598e-07
-6.11166e-07
-1.43772e-07
-5.6495e-07
-1.41463e-07
-5.19474e-07
-1.39077e-07
-4.74749e-07
-1.36635e-07
-4.30774e-07
-1.34168e-07
-3.87541e-07
-1.31701e-07
-3.45028e-07
-1.29263e-07
-3.03208e-07
-1.26881e-07
-2.62039e-07
-1.2459e-07
-2.21472e-07
-1.2242e-07
-1.81443e-07
-1.20404e-07
-1.41884e-07
-1.18573e-07
-1.02705e-07
-1.16969e-07
-6.38138e-08
-1.15623e-07
-2.50989e-08
-1.14568e-07
1.35439e-08
-1.13831e-07
5.22311e-08
-1.13447e-07
9.11089e-08
-1.13451e-07
1.30362e-07
-1.1389e-07
1.70186e-07
-1.14772e-07
2.10792e-07
-1.16113e-07
2.52383e-07
-1.17954e-07
2.95191e-07
-1.20307e-07
3.39519e-07
-1.2315e-07
3.85637e-07
-1.26562e-07
4.33702e-07
-1.30699e-07
4.83837e-07
-1.35642e-07
5.36172e-07
-1.41354e-07
5.90821e-07
-1.4772e-07
6.47861e-07
-1.54557e-07
7.07285e-07
-1.61628e-07
7.68978e-07
-1.686e-07
8.32657e-07
-1.74949e-07
8.97796e-07
-1.79819e-07
9.63498e-07
-1.8156e-07
1.02846e-06
-1.77458e-07
1.09116e-06
-1.60291e-07
-1.1471e-07
1.1576e-06
-1.21937e-08
-7.31862e-09
-2.78324e-08
1.12225e-08
-4.44239e-08
2.58016e-08
-6.16044e-08
3.82061e-08
-7.93928e-08
4.91883e-08
-9.79439e-08
5.89851e-08
-1.17444e-07
6.76814e-08
-1.38068e-07
7.53404e-08
-1.59926e-07
8.20545e-08
-1.83076e-07
8.79499e-08
-2.07515e-07
9.31727e-08
-2.33218e-07
9.78713e-08
-2.60133e-07
1.02183e-07
-2.88214e-07
1.06224e-07
-3.17403e-07
1.1009e-07
-3.47656e-07
1.13856e-07
-3.78912e-07
1.17575e-07
-4.11112e-07
1.21281e-07
-4.44169e-07
1.24991e-07
-4.77984e-07
1.28702e-07
-5.12414e-07
1.32384e-07
-5.47304e-07
1.35978e-07
-5.82475e-07
1.39399e-07
-6.17786e-07
1.42545e-07
-6.53142e-07
1.4531e-07
-6.88546e-07
1.47622e-07
-7.24006e-07
1.49504e-07
-7.59305e-07
1.51093e-07
-7.94162e-07
1.52483e-07
-8.28388e-07
1.53666e-07
-8.61881e-07
1.54581e-07
-8.94844e-07
1.55129e-07
-9.27652e-07
1.55296e-07
-9.60492e-07
1.55151e-07
-9.93161e-07
1.54776e-07
-1.02576e-06
1.5419e-07
-1.05834e-06
1.53495e-07
-1.09077e-06
1.5282e-07
-1.12294e-06
1.52174e-07
-1.15491e-06
1.51506e-07
-1.18671e-06
1.50813e-07
-1.21835e-06
1.501e-07
-1.24984e-06
1.49374e-07
-1.28118e-06
1.48636e-07
-1.31237e-06
1.47886e-07
-1.34342e-06
1.47121e-07
-1.37431e-06
1.46337e-07
-1.40505e-06
1.45529e-07
-1.43563e-06
1.44694e-07
-1.46605e-06
1.43824e-07
-1.49629e-06
1.42914e-07
-1.52634e-06
1.41959e-07
-1.55619e-06
1.4095e-07
-1.58582e-06
1.39882e-07
-1.61521e-06
1.38746e-07
-1.64434e-06
1.37537e-07
-1.6732e-06
1.36246e-07
-1.70175e-06
1.34867e-07
-1.72999e-06
1.33393e-07
-1.75787e-06
1.31817e-07
-1.78538e-06
1.30132e-07
-1.81249e-06
1.28332e-07
-1.83917e-06
1.26412e-07
-1.86538e-06
1.24365e-07
-1.8911e-06
1.22185e-07
-1.9163e-06
1.19869e-07
-1.94093e-06
1.1741e-07
-1.96498e-06
1.14806e-07
-1.9884e-06
1.12052e-07
-2.01115e-06
1.09143e-07
-2.0332e-06
1.06078e-07
-2.05452e-06
1.02853e-07
-2.07507e-06
9.94655e-08
-2.0948e-06
9.59126e-08
-2.11368e-06
9.21928e-08
-2.13168e-06
8.83044e-08
-2.14875e-06
8.42466e-08
-2.16485e-06
8.00183e-08
-2.17994e-06
7.5619e-08
-2.19399e-06
7.10483e-08
-2.20696e-06
6.63068e-08
-2.21881e-06
6.13946e-08
-2.2295e-06
5.6313e-08
-2.239e-06
5.10637e-08
-2.24727e-06
4.56492e-08
-2.25428e-06
4.00729e-08
-2.26e-06
3.43394e-08
-2.2644e-06
2.84547e-08
-2.26745e-06
2.24264e-08
-2.26912e-06
1.62641e-08
-2.2694e-06
9.97986e-09
-2.26825e-06
3.58729e-09
-2.26561e-06
-2.90306e-09
-2.26144e-06
-9.49018e-09
-2.2557e-06
-1.61825e-08
-2.24836e-06
-2.29821e-08
-2.23939e-06
-2.98798e-08
-2.22877e-06
-3.68629e-08
-2.21647e-06
-4.39184e-08
-2.2025e-06
-5.10324e-08
-2.18682e-06
-5.8191e-08
-2.16945e-06
-6.53787e-08
-2.15036e-06
-7.25804e-08
-2.12957e-06
-7.97793e-08
-2.10707e-06
-8.69591e-08
-2.08289e-06
-9.41021e-08
-2.05702e-06
-1.0119e-07