/*--------------------------------*- C++ -*----------------------------------*\
  =========                 |
  \\      /  F ield         | OpenFOAM: The Open Source CFD Toolbox
   \\    /   O peration     | Website:  https://openfoam.org
    \\  /    A nd           | Version:  8
     \\/     M anipulation  |
\*---------------------------------------------------------------------------*/
/*   Windows 32 and 64 bit porting by blueCAPE: http://www.bluecape.com.pt   *\
|  Based on Windows porting (2.0.x v4) by Symscape: http://www.symscape.com   |
\*---------------------------------------------------------------------------*/
FoamFile
{
    version     2.0;
    format      ascii;
    class       volVectorField;
    location    "200";
    object      U;
}
// * * * * * * * * * * * * * * * * * * * * * * * * * * * * * * * * * * * * * //

dimensions      [0 1 -1 0 0 0 0];

internalField   nonuniform List<vector> 
12225
(
(9.85697 -0.886445 0)
(9.66664 -0.740745 0)
(9.4557 -0.429481 0)
(9.2245 -0.222211 0)
(9.00645 -0.106455 0)
(8.81431 -0.0458642 0)
(8.64738 -0.0151705 0)
(8.50517 0.000456872 0)
(8.38344 0.00839629 0)
(8.28064 0.012288 0)
(8.19213 0.01401 0)
(8.11587 0.0150281 0)
(8.04896 0.0154388 0)
(7.98974 0.0156382 0)
(7.93614 0.0156791 0)
(7.88943 0.0156331 0)
(7.83421 0.0171606 0)
(7.82446 0.0123866 0)
(10.0545 0.227567 0)
(10.121 0.326912 0)
(10.1196 0.261573 0)
(10.0855 0.186543 0)
(10.0434 0.134673 0)
(9.99669 0.101121 0)
(9.94396 0.079296 0)
(9.88519 0.0645778 0)
(9.82381 0.0542764 0)
(9.76125 0.0466965 0)
(9.69975 0.0409402 0)
(9.63987 0.0364029 0)
(9.58251 0.0327691 0)
(9.52802 0.0299422 0)
(9.47604 0.0275591 0)
(9.42831 0.0268797 0)
(9.38039 0.0240226 0)
(9.34656 0.0337627 0)
(10.0035 0.0579191 0)
(10.0303 0.0560081 0)
(10.0561 0.0337827 0)
(10.0703 0.0329015 0)
(10.077 0.0406534 0)
(10.0778 0.0465543 0)
(10.0725 0.0493724 0)
(10.0613 0.050323 0)
(10.0461 0.0502288 0)
(10.0276 0.0495259 0)
(10.007 0.048498 0)
(9.98478 0.0473577 0)
(9.96158 0.0462083 0)
(9.93785 0.0451971 0)
(9.91382 0.0442163 0)
(9.89029 0.0440015 0)
(9.86678 0.0434582 0)
(9.84496 0.0462183 0)
(9.99779 0.0110545 0)
(10.011 0.02661 0)
(10.035 0.0371547 0)
(10.0525 0.0480926 0)
(10.0643 0.0554629 0)
(10.0734 0.0581993 0)
(10.0794 0.0583749 0)
(10.0823 0.0576407 0)
(10.0827 0.0566028 0)
(10.0811 0.0554219 0)
(10.078 0.054172 0)
(10.0736 0.0529747 0)
(10.0681 0.0518314 0)
(10.062 0.0508581 0)
(10.0551 0.0499728 0)
(10.0481 0.0496045 0)
(10.0409 0.0491505 0)
(10.034 0.0499644 0)
(9.99935 0.0071994 0)
(10.009 0.031657 0)
(10.0275 0.0439279 0)
(10.0418 0.0499323 0)
(10.0528 0.0536258 0)
(10.0628 0.0552559 0)
(10.0715 0.0555432 0)
(10.0783 0.0552632 0)
(10.0834 0.0547335 0)
(10.0872 0.0540483 0)
(10.0899 0.0532658 0)
(10.0918 0.0524854 0)
(10.0929 0.0517289 0)
(10.0935 0.0510831 0)
(10.0936 0.0505179 0)
(10.0935 0.0502503 0)
(10.0933 0.0500005 0)
(10.0933 0.0501395 0)
(10.0003 0.00918013 0)
(10.0083 0.0311733 0)
(10.0227 0.0409508 0)
(10.0349 0.0454047 0)
(10.045 0.0490549 0)
(10.0547 0.0513966 0)
(10.0637 0.0523862 0)
(10.0713 0.0526308 0)
(10.0778 0.0525123 0)
(10.0833 0.0521705 0)
(10.0881 0.0516845 0)
(10.0923 0.0511464 0)
(10.0959 0.0505978 0)
(10.099 0.0501027 0)
(10.1019 0.0496575 0)
(10.1045 0.0493577 0)
(10.1072 0.0490711 0)
(10.11 0.0487994 0)
(10.0005 0.00894703 0)
(10.0071 0.0270896 0)
(10.0191 0.0364216 0)
(10.0301 0.0414043 0)
(10.0396 0.0454339 0)
(10.0486 0.0481066 0)
(10.0572 0.049385 0)
(10.0649 0.049867 0)
(10.0716 0.0499566 0)
(10.0777 0.0498018 0)
(10.0832 0.0494835 0)
(10.0882 0.0490829 0)
(10.0928 0.0486487 0)
(10.097 0.0482265 0)
(10.101 0.0478212 0)
(10.1049 0.0474649 0)
(10.1087 0.0470784 0)
(10.1126 0.046564 0)
(10.0004 0.00791872 0)
(10.006 0.0233844 0)
(10.0161 0.0327455 0)
(10.0263 0.0381173 0)
(10.0351 0.042119 0)
(10.0436 0.0448101 0)
(10.0517 0.0462311 0)
(10.0591 0.0468776 0)
(10.0658 0.0471164 0)
(10.072 0.0470945 0)
(10.0777 0.0468932 0)
(10.0831 0.0465859 0)
(10.088 0.0462225 0)
(10.0927 0.0458367 0)
(10.0972 0.0454342 0)
(10.1016 0.0450159 0)
(10.1059 0.0445236 0)
(10.1102 0.0438567 0)
(10.0004 0.00696356 0)
(10.0051 0.0204331 0)
(10.0137 0.0294654 0)
(10.0228 0.0348797 0)
(10.0312 0.0387378 0)
(10.0391 0.0414081 0)
(10.0468 0.0429506 0)
(10.054 0.0437376 0)
(10.0605 0.0440942 0)
(10.0667 0.0441724 0)
(10.0724 0.0440553 0)
(10.0778 0.0438114 0)
(10.0829 0.0434887 0)
(10.0877 0.0431143 0)
(10.0924 0.0426922 0)
(10.097 0.0422116 0)
(10.1015 0.0416253 0)
(10.1059 0.0408597 0)
(10.0004 0.00613321 0)
(10.0043 0.0178687 0)
(10.0116 0.0262894 0)
(10.0199 0.0316023 0)
(10.0276 0.035335 0)
(10.0351 0.0379702 0)
(10.0424 0.039593 0)
(10.0492 0.0404836 0)
(10.0556 0.0409276 0)
(10.0616 0.0410794 0)
(10.0673 0.0410228 0)
(10.0727 0.0408214 0)
(10.0778 0.0405201 0)
(10.0827 0.0401426 0)
(10.0874 0.0396921 0)
(10.092 0.0391557 0)
(10.0965 0.0384964 0)
(10.1009 0.0376704 0)
(10.0003 0.00537372 0)
(10.0037 0.0155602 0)
(10.0099 0.0232528 0)
(10.0173 0.0283688 0)
(10.0245 0.03196 0)
(10.0315 0.0345191 0)
(10.0383 0.0361674 0)
(10.0449 0.0371224 0)
(10.0511 0.0376272 0)
(10.057 0.0378312 0)
(10.0625 0.0378171 0)
(10.0678 0.0376436 0)
(10.0729 0.0373524 0)
(10.0777 0.0369654 0)
(10.0824 0.0364869 0)
(10.0869 0.0359063 0)
(10.0913 0.0351974 0)
(10.0956 0.03434 0)
(10.0003 0.00470887 0)
(10.0032 0.0136199 0)
(10.0086 0.0206076 0)
(10.0152 0.025459 0)
(10.0219 0.0288846 0)
(10.0285 0.0313385 0)
(10.035 0.0329679 0)
(10.0413 0.0339494 0)
(10.0473 0.0344875 0)
(10.053 0.0347218 0)
(10.0584 0.0347325 0)
(10.0636 0.0345743 0)
(10.0686 0.034286 0)
(10.0734 0.0338888 0)
(10.078 0.0333888 0)
(10.0824 0.0327798 0)
(10.0867 0.0320443 0)
(10.0909 0.0311803 0)
(10.0003 0.00409443 0)
(10.0028 0.011851 0)
(10.0075 0.0181092 0)
(10.0134 0.0226194 0)
(10.0196 0.0258449 0)
(10.0259 0.028168 0)
(10.032 0.0297457 0)
(10.038 0.0307262 0)
(10.0438 0.0312788 0)
(10.0494 0.0315293 0)
(10.0547 0.0315544 0)
(10.0597 0.0314051 0)
(10.0646 0.0311173 0)
(10.0693 0.030712 0)
(10.0738 0.0301973 0)
(10.0781 0.0295722 0)
(10.0823 0.0288259 0)
(10.0863 0.0279704 0)
(10.0002 0.00345975 0)
(10.0024 0.0100128 0)
(10.0064 0.0154295 0)
(10.0117 0.0194736 0)
(10.0174 0.0224153 0)
(10.0232 0.0245476 0)
(10.029 0.0260226 0)
(10.0347 0.026964 0)
(10.0402 0.0275055 0)
(10.0456 0.027755 0)
(10.0507 0.0277826 0)
(10.0556 0.0276352 0)
(10.0604 0.0273455 0)
(10.0649 0.0269341 0)
(10.0693 0.0264112 0)
(10.0735 0.025781 0)
(10.0775 0.0250393 0)
(10.0814 0.0242079 0)
(10.0002 0.00280076 0)
(10.002 0.00810367 0)
(10.0055 0.0125784 0)
(10.0101 0.0160266 0)
(10.0153 0.0185822 0)
(10.0206 0.0204479 0)
(10.026 0.0217556 0)
(10.0314 0.0226057 0)
(10.0367 0.0230989 0)
(10.0418 0.0233216 0)
(10.0467 0.0233345 0)
(10.0515 0.0231788 0)
(10.0561 0.0228839 0)
(10.0605 0.0224692 0)
(10.0647 0.0219473 0)
(10.0688 0.0213257 0)
(10.0726 0.0206064 0)
(10.0763 0.0198163 0)
(10.0002 0.00211667 0)
(10.0017 0.00612551 0)
(10.0047 0.00956435 0)
(10.0087 0.0122827 0)
(10.0134 0.0143327 0)
(10.0183 0.0158388 0)
(10.0233 0.0168999 0)
(10.0283 0.0175918 0)
(10.0333 0.0179861 0)
(10.0382 0.0181463 0)
(10.0429 0.0181203 0)
(10.0475 0.0179423 0)
(10.0519 0.0176369 0)
(10.0561 0.017222 0)
(10.0602 0.0167103 0)
(10.0641 0.0161122 0)
(10.0678 0.0154324 0)
(10.0713 0.0147001 0)
(10.0002 0.00140444 0)
(10.0015 0.00406406 0)
(10.0041 0.00637062 0)
(10.0076 0.00822436 0)
(10.0118 0.00963765 0)
(10.0163 0.0106752 0)
(10.0209 0.0113977 0)
(10.0256 0.0118539 0)
(10.0304 0.0120885 0)
(10.035 0.0121424 0)
(10.0395 0.0120481 0)
(10.0439 0.0118302 0)
(10.0481 0.0115072 0)
(10.0522 0.0110935 0)
(10.056 0.0106005 0)
(10.0598 0.0100383 0)
(10.0633 0.00941255 0)
(10.0667 0.0087511 0)
(10.0001 0.000647519 0)
(10.0013 0.0018672 0)
(10.0036 0.00292464 0)
(10.0069 0.00377092 0)
(10.0107 0.00440558 0)
(10.0148 0.00485137 0)
(10.0192 0.0051311 0)
(10.0237 0.0052646 0)
(10.0281 0.00527101 0)
(10.0325 0.00516836 0)
(10.0369 0.00497185 0)
(10.041 0.00469373 0)
(10.0451 0.00434403 0)
(10.049 0.00393147 0)
(10.0527 0.0034636 0)
(10.0563 0.00294797 0)
(10.0597 0.00238882 0)
(10.0629 0.00180983 0)
(10.0001 -0.000197311 0)
(10.0012 -0.000587427 0)
(10.0034 -0.0009474 0)
(10.0066 -0.0012707 0)
(10.0102 -0.00155751 0)
(10.0143 -0.00182159 0)
(10.0185 -0.00208088 0)
(10.0228 -0.00234754 0)
(10.0271 -0.00262907 0)
(10.0314 -0.0029312 0)
(10.0356 -0.00325851 0)
(10.0396 -0.00361352 0)
(10.0435 -0.00399719 0)
(10.0473 -0.00440896 0)
(10.0509 -0.00484756 0)
(10.0543 -0.00531029 0)
(10.0576 -0.00579623 0)
(10.0607 -0.00628825 0)
(10.0001 -0.00100579 0)
(10.0013 -0.00294331 0)
(10.0037 -0.00467029 0)
(10.007 -0.00610883 0)
(10.0108 -0.00725626 0)
(10.015 -0.00817233 0)
(10.0193 -0.00891837 0)
(10.0237 -0.00953656 0)
(10.0281 -0.0100611 0)
(10.0324 -0.0105238 0)
(10.0365 -0.0109494 0)
(10.0405 -0.0113547 0)
(10.0444 -0.0117509 0)
(10.0481 -0.0121456 0)
(10.0516 -0.0125437 0)
(10.055 -0.0129476 0)
(10.0582 -0.0133595 0)
(10.0612 -0.0137687 0)
(10.0002 -0.00170313 0)
(10.0015 -0.00500135 0)
(10.0041 -0.0079243 0)
(10.0078 -0.010272 0)
(10.012 -0.012066 0)
(10.0165 -0.0134564 0)
(10.021 -0.0145491 0)
(10.0256 -0.0154013 0)
(10.03 -0.0160698 0)
(10.0344 -0.0166134 0)
(10.0386 -0.0170763 0)
(10.0427 -0.0174874 0)
(10.0465 -0.0178658 0)
(10.0502 -0.0182254 0)
(10.0538 -0.0185754 0)
(10.0571 -0.0189214 0)
(10.0603 -0.0192674 0)
(10.0633 -0.0196065 0)
(10.0002 -0.00236539 0)
(10.0017 -0.00703512 0)
(10.0047 -0.0111757 0)
(10.009 -0.0143428 0)
(10.0137 -0.016637 0)
(10.0185 -0.0183685 0)
(10.0234 -0.0196972 0)
(10.0282 -0.0206942 0)
(10.0329 -0.0214407 0)
(10.0374 -0.022018 0)
(10.0417 -0.0224827 0)
(10.0458 -0.0228713 0)
(10.0497 -0.0232105 0)
(10.0534 -0.0235196 0)
(10.0569 -0.023812 0)
(10.0602 -0.0240949 0)
(10.0634 -0.0243743 0)
(10.0664 -0.0246453 0)
(10.0002 -0.00298524 0)
(10.0018 -0.00909468 0)
(10.0054 -0.0144491 0)
(10.0105 -0.018337 0)
(10.0159 -0.0210798 0)
(10.0211 -0.0231008 0)
(10.0263 -0.0245552 0)
(10.0314 -0.0255681 0)
(10.0363 -0.0262938 0)
(10.0409 -0.0268423 0)
(10.0453 -0.02727 0)
(10.0495 -0.0276126 0)
(10.0535 -0.0278996 0)
(10.0572 -0.0281532 0)
(10.0607 -0.0283877 0)
(10.064 -0.0286115 0)
(10.0672 -0.02883 0)
(10.0702 -0.0290409 0)
(10.0001 -0.00353165 0)
(10.0018 -0.0115493 0)
(10.0063 -0.0178856 0)
(10.0123 -0.0219828 0)
(10.0183 -0.0250495 0)
(10.024 -0.0274584 0)
(10.0297 -0.029096 0)
(10.0351 -0.0301056 0)
(10.0402 -0.0307576 0)
(10.0449 -0.0312168 0)
(10.0494 -0.0315509 0)
(10.0537 -0.0318006 0)
(10.0577 -0.0319996 0)
(10.0614 -0.0321719 0)
(10.065 -0.0323309 0)
(10.0683 -0.0324841 0)
(10.0714 -0.0326347 0)
(10.0743 -0.0327799 0)
(9.99991 -0.00338063 0)
(10.0016 -0.0149667 0)
(10.0073 -0.0227248 0)
(10.0142 -0.0262365 0)
(10.0206 -0.0288235 0)
(10.0269 -0.0311889 0)
(10.0331 -0.03291 0)
(10.039 -0.0339978 0)
(10.0445 -0.0346973 0)
(10.0494 -0.035161 0)
(10.0541 -0.0354591 0)
(10.0584 -0.035646 0)
(10.0624 -0.0357678 0)
(10.0661 -0.0358552 0)
(10.0695 -0.0359265 0)
(10.0727 -0.0359915 0)
(10.0756 -0.0360551 0)
(10.0783 -0.0361159 0)
(9.9986 -0.000397979 0)
(9.99909 -0.0157554 0)
(10.0075 -0.0274287 0)
(10.0166 -0.0324896 0)
(10.0238 -0.0348662 0)
(10.0306 -0.0362219 0)
(10.0376 -0.0369736 0)
(10.0441 -0.0374401 0)
(10.0499 -0.0377885 0)
(10.055 -0.0380356 0)
(10.0596 -0.0381805 0)
(10.0636 -0.0382487 0)
(10.0672 -0.0382699 0)
(10.0704 -0.0382653 0)
(10.0732 -0.0382503 0)
(10.0756 -0.038233 0)
(10.0777 -0.0382177 0)
(10.0796 -0.038202 0)
(9.99488 0.00133567 0)
(9.99288 -0.00809183 0)
(10.006 -0.0203507 0)
(10.0202 -0.0322754 0)
(10.0307 -0.0404773 0)
(10.0392 -0.0441486 0)
(10.0467 -0.0450606 0)
(10.0529 -0.0449156 0)
(10.0578 -0.0444484 0)
(10.0617 -0.0438524 0)
(10.0646 -0.0432076 0)
(10.0668 -0.0425711 0)
(10.0683 -0.0419769 0)
(10.0691 -0.0414331 0)
(10.0694 -0.0409495 0)
(10.0693 -0.0405226 0)
(10.0689 -0.0401496 0)
(10.0681 -0.0398052 0)
(9.99473 -0.0305613 0)
(9.99925 -0.0228714 0)
(10.0147 -0.00263478 0)
(10.0304 -0.00190857 0)
(10.0434 -0.0116578 0)
(10.0533 -0.0209213 0)
(10.0594 -0.027278 0)
(10.0619 -0.0315055 0)
(10.0615 -0.03428 0)
(10.0591 -0.035976 0)
(10.0551 -0.0369077 0)
(10.0498 -0.0373412 0)
(10.0435 -0.037467 0)
(10.0365 -0.0374046 0)
(10.0289 -0.0372446 0)
(10.021 -0.0370422 0)
(10.0129 -0.0368623 0)
(10.0047 -0.0366738 0)
(10.0273 -0.182758 0)
(10.0763 -0.288313 0)
(10.0871 -0.247755 0)
(10.0777 -0.186519 0)
(10.0664 -0.140296 0)
(10.0538 -0.108221 0)
(10.0365 -0.0858811 0)
(10.0145 -0.0704208 0)
(9.98939 -0.0596516 0)
(9.96235 -0.0518775 0)
(9.93439 -0.0460553 0)
(9.90607 -0.0415577 0)
(9.8779 -0.0380017 0)
(9.8502 -0.0351269 0)
(9.82321 -0.0327608 0)
(9.79705 -0.0308403 0)
(9.77196 -0.0293244 0)
(9.74796 -0.028506 0)
(9.93574 0.689319 0)
(9.86861 0.609605 0)
(9.76453 0.380623 0)
(9.62664 0.217442 0)
(9.4859 0.119267 0)
(9.35721 0.0631869 0)
(9.24269 0.0315756 0)
(9.14115 0.0136161 0)
(9.05147 0.00326321 0)
(8.9725 -0.00279804 0)
(8.9026 -0.00635362 0)
(8.84043 -0.00847283 0)
(8.78473 -0.0097237 0)
(8.73463 -0.0104699 0)
(8.68921 -0.0109732 0)
(8.64787 -0.011243 0)
(8.60968 -0.0114505 0)
(8.57433 -0.0121115 0)
(0.00701573 -0.0162005 -8.45504e-19)
(0.0206042 -0.0199422 6.50255e-19)
(0.0296486 -0.0130028 0)
(0.0330674 -0.00337421 0)
(0.0302289 0.00532528 0)
(0.0224228 0.0117921 -2.92693e-19)
(0.010917 0.0160455 0)
(-0.00323001 0.0185945 0)
(-0.0192305 0.0200323 0)
(-0.0365823 0.0208418 0)
(-0.054951 0.0213363 1.5945e-19)
(-0.0741288 0.0216885 0)
(-0.0939886 0.021984 0)
(-0.114451 0.0222566 0)
(-0.135464 0.0225202 0)
(-0.156994 0.022786 1.04529e-19)
(-0.179008 0.0230777 0)
(-0.201487 0.0234342 0)
(-0.224457 0.02391 0)
(-0.247998 0.0245913 0)
(-0.272196 0.0256252 0)
(-0.297127 0.0271243 0)
(-0.322942 0.028944 0)
(-0.349742 0.0310018 8.06451e-20)
(-0.377407 0.0331079 -7.9973e-20)
(-0.405748 0.0299048 7.83366e-20)
(-0.434269 0.0195343 7.56199e-20)
(-0.460637 0.0166284 0)
(-0.487125 0.025012 0)
(-0.517734 0.0356411 -6.7438e-20)
(-0.550641 0.0509995 -6.54069e-20)
(-0.586375 0.0723671 0)
(-0.62663 0.0593561 0)
(-0.667446 0.0344721 -9.47046e-20)
(-0.702762 0.0437373 0)
(-0.74298 0.0410312 0)
(-0.78182 0.0275874 8.10288e-20)
(-0.817823 0.02627 0)
(-0.853459 0.0343732 7.62595e-20)
(-0.892923 0.0351892 1.47704e-19)
(-0.932109 0.0352977 0)
(-0.971507 0.0352237 0)
(-1.01101 0.0351261 0)
(-1.05061 0.0349665 0)
(-1.09025 0.034765 0)
(-1.12989 0.0345252 1.23481e-19)
(-1.1695 0.0342628 1.20256e-19)
(-1.20904 0.0339832 1.17218e-19)
(-1.24852 0.0336933 0)
(-1.28791 0.0333951 -1.11654e-19)
(-1.32719 0.0330915 0)
(-1.36637 0.0327818 1.06675e-19)
(-1.40543 0.0324674 1.04377e-19)
(-1.44435 0.0321466 0)
(-1.48312 0.0318193 0)
(-1.52172 0.0314826 0)
(-1.56014 0.0311369 9.62362e-20)
(-1.59836 0.0307792 0)
(-1.63636 0.0304094 0)
(-1.67411 0.0300242 0)
(-1.71158 0.029624 0)
(-1.74876 0.029206 0)
(-1.78561 0.0287703 0)
(-1.82209 0.0283138 0)
(-1.85819 0.0278372 0)
(-1.89385 0.0273376 -8.23022e-20)
(-1.92905 0.0268162 0)
(-1.96375 0.0262704 0)
(-1.9979 0.0257015 7.85652e-20)
(-2.03147 0.0251073 7.73906e-20)
(-2.06441 0.024489 0)
(-2.09669 0.0238445 -7.51329e-20)
(-2.12824 0.0231752 7.40449e-20)
(-2.15904 0.0224791 0)
(-2.18904 0.021758 -7.19371e-20)
(-2.21818 0.0210097 0)
(-2.24643 0.0202366 0)
(-2.27372 0.0194368 6.89147e-20)
(-2.30001 0.0186115 0)
(-2.32525 0.0177578 -6.69688e-20)
(-2.34939 0.016877 0)
(-2.37238 0.0159653 6.50595e-20)
(-2.39416 0.0150218 6.41141e-20)
(-2.41468 0.0140407 6.31719e-20)
(-2.43389 0.0130191 1.24463e-19)
(-2.45172 0.0119485 -1.22583e-19)
(-2.46811 0.0108228 0)
(-2.48299 0.00963211 0)
(-2.49628 0.00837061 0)
(-2.5079 0.00703633 -1.15002e-19)
(-2.51778 0.00564035 -1.13083e-19)
(-2.52583 0.00421636 1.11155e-19)
(-2.5319 0.00281156 0)
(-2.53587 0.00146968 -1.07265e-19)
(-2.53764 0.000264459 -1.05231e-19)
(-2.53772 -0.000827212 -1.03152e-19)
(-2.53605 -0.00189344 0)
(-2.53266 -0.00295324 0)
(-2.52754 -0.00401617 0)
(-2.52067 -0.00508262 -9.43233e-20)
(-2.51204 -0.00615165 0)
(-2.50163 -0.0072225 0)
(-2.48943 -0.00829381 8.70402e-20)
(-2.47543 -0.0093644 0)
(-2.45962 -0.0104325 0)
(-2.44201 -0.0114964 7.90662e-20)
(-2.4226 -0.012554 0)
(-2.40139 -0.0136031 0)
(-2.3784 -0.0146416 -7.02892e-20)
(-2.35365 -0.0156665 -6.71667e-20)
(-2.32716 -0.0166757 0)
(-2.29896 -0.0176655 6.06033e-20)
(-2.26907 -0.0186343 0)
(-2.23755 -0.0195779 -5.3592e-20)
(-2.20442 -0.0204952 0)
(-2.16974 -0.0213814 -4.6106e-20)
(-2.13357 -0.0222352 -4.21777e-20)
(-2.09596 -0.0230512 0)
(-2.05697 -0.0238279 0)
(-2.01668 -0.0245592 0)
(-1.97514 -0.0252522 0)
(-1.93242 -0.0259088 0)
(-1.88859 -0.0265179 0)
(-1.84375 -0.0270796 0)
(-1.79798 -0.027601 -5.97999e-21)
(-1.75137 -0.0280687 8.31286e-22)
(-1.704 -0.0284877 0)
(-1.65596 -0.0288536 0)
(-1.60733 -0.0291675 0)
(-1.5582 -0.0294223 0)
(-1.50867 -0.0296208 -5.41053e-20)
(-1.45884 -0.0297576 0)
(-1.40879 -0.029835 7.84047e-20)
(-1.35861 -0.0298499 -9.09749e-20)
(-1.30841 -0.0298044 0)
(-1.25827 -0.029697 0)
(-1.20827 -0.0295271 0)
(-1.1585 -0.0292929 1.43991e-19)
(-1.10902 -0.0289945 1.57921e-19)
(-1.05993 -0.0286393 0)
(-1.01129 -0.0282335 1.8658e-19)
(-0.963184 -0.0277854 2.01298e-19)
(-0.915661 -0.0272983 -2.16269e-19)
(-0.868764 -0.026774 0)
(-0.822531 -0.0262136 0)
(-0.776996 -0.025622 -2.62661e-19)
(-0.732182 -0.0250029 0)
(-0.688106 -0.0243625 0)
(-0.644773 -0.0237037 0)
(-0.602181 -0.023034 0)
(-0.560316 -0.0223578 3.4489e-19)
(-0.519155 -0.0216838 3.6211e-19)
(-0.478665 -0.0210158 0)
(-0.438801 -0.0203628 3.97447e-19)
(-0.399512 -0.0197322 0)
(-0.360728 -0.0191337 0)
(-0.322374 -0.018572 4.53165e-19)
(-0.284364 -0.0180608 0)
(-0.246597 -0.0176094 4.9274e-19)
(-0.208964 -0.0172264 0)
(-0.171348 -0.0169239 0)
(-0.133596 -0.0167318 5.57662e-19)
(-0.0955654 -0.0166771 0)
(-0.0571702 -0.0167643 6.06567e-19)
(-0.018303 -0.0169365 0)
(0.020958 -0.0169763 0)
(0.0599469 -0.0166718 0)
(0.0991364 -0.0163196 -6.40106e-19)
(0.139531 -0.0162342 0)
(0.181382 -0.0164039 6.12321e-19)
(0.225104 -0.0167893 0)
(0.271029 -0.017336 0)
(0.319429 -0.0180052 0)
(0.370465 -0.0187574 0)
(0.424209 -0.0195258 0)
(0.480276 -0.0201754 0)
(0.538723 -0.0204224 0)
(0.594549 -0.0196802 -1.04064e-18)
(0.656323 -0.0164655 0)
(0.664093 0.00218105 0)
(0.00452829 -0.0412827 1.89554e-18)
(0.00816308 -0.0315131 -1.00235e-18)
(0.00569289 -0.0133808 0)
(3.33974e-05 0.00380758 3.03471e-19)
(-0.00822364 0.0186512 0)
(-0.0190498 0.0305816 1.12631e-19)
(-0.032285 0.0396322 -2.04339e-19)
(-0.0477381 0.0462246 -1.87725e-19)
(-0.0651362 0.0509355 0)
(-0.0841864 0.0543205 -1.61637e-19)
(-0.104632 0.0568236 -7.56392e-20)
(-0.126274 0.0587589 0)
(-0.148967 0.0603328 0)
(-0.17262 0.0616736 0)
(-0.197188 0.062861 0)
(-0.222661 0.0639474 -5.83548e-20)
(-0.249057 0.0649744 0)
(-0.276419 0.065981 1.08764e-19)
(-0.304808 0.0670092 0)
(-0.334287 0.068113 0)
(-0.364881 0.0693706 -1.01788e-19)
(-0.396625 0.07086 0)
(-0.429583 0.0725899 9.99567e-20)
(-0.463715 0.0745108 -4.99172e-20)
(-0.498673 0.0765382 4.98261e-20)
(-0.534939 0.0781774 -4.94053e-20)
(-0.573237 0.0791999 -4.8468e-20)
(-0.61356 0.0804856 0)
(-0.654844 0.0825436 0)
(-0.695383 0.0846996 4.58139e-20)
(-0.735627 0.0860592 -4.55265e-20)
(-0.773726 0.0872077 0)
(-0.813225 0.087943 0)
(-0.853086 0.088698 4.69962e-20)
(-0.893013 0.0907966 0)
(-0.931045 0.0915218 0)
(-0.969933 0.091273 -4.09077e-20)
(-1.00958 0.0911538 0)
(-1.04885 0.0914307 3.85848e-20)
(-1.08682 0.0913741 -7.55689e-20)
(-1.12437 0.0909821 0)
(-1.16157 0.0904034 0)
(-1.19845 0.089692 -1.40912e-19)
(-1.23506 0.0888906 -1.37948e-19)
(-1.2714 0.0880255 -1.35131e-19)
(-1.30751 0.0871152 6.60659e-20)
(-1.34339 0.0861746 -6.51092e-20)
(-1.37905 0.0852122 -1.91355e-19)
(-1.41448 0.0842346 1.25137e-19)
(-1.44969 0.0832437 6.16142e-20)
(-1.48467 0.0822415 0)
(-1.51942 0.0812265 -5.95232e-20)
(-1.55391 0.0801983 5.82255e-20)
(-1.58815 0.0791538 0)
(-1.62211 0.0780912 0)
(-1.65578 0.0770061 0)
(-1.68915 0.0758968 -5.49465e-20)
(-1.72219 0.0747588 0)
(-1.75489 0.0735904 1.06348e-19)
(-1.78721 0.0723871 0)
(-1.81914 0.0711478 1.03299e-19)
(-1.85065 0.0698686 0)
(-1.88172 0.0685487 -1.00414e-19)
(-1.9123 0.067184 0)
(-1.94239 0.0657744 9.76674e-20)
(-1.97193 0.0643165 -4.80359e-20)
(-2.00091 0.0628107 0)
(-2.02928 0.0612545 -9.37627e-20)
(-2.05702 0.0596488 -4.63791e-20)
(-2.08409 0.0579914 -4.57585e-20)
(-2.11045 0.0562837 0)
(-2.13607 0.0545235 -4.43138e-20)
(-2.16091 0.0527126 -4.39441e-20)
(-2.18493 0.0508491 0)
(-2.2081 0.0489351 4.27637e-20)
(-2.23037 0.0469693 -8.41638e-20)
(-2.25171 0.0449547 0)
(-2.27208 0.0428905 -4.10171e-20)
(-2.29144 0.0407792 0)
(-2.30974 0.0386192 1.19417e-19)
(-2.32694 0.0364132 0)
(-2.34302 0.0341601 -1.15946e-19)
(-2.35791 0.0318621 -3.81069e-20)
(-2.3716 0.0295172 3.74077e-20)
(-2.38403 0.0271276 7.3651e-20)
(-2.39517 0.0246907 -7.24763e-20)
(-2.40499 0.0222067 0)
(-2.41345 0.0196709 0)
(-2.42053 0.0170794 0)
(-2.4262 0.0144243 2.03024e-19)
(-2.43048 0.0117 6.64083e-20)
(-2.43341 0.00891611 -6.51129e-20)
(-2.43504 0.00610951 0)
(-2.43546 0.00334502 -6.2524e-20)
(-2.43477 0.000708732 6.1059e-20)
(-2.43256 -0.00181433 5.96391e-20)
(-2.42874 -0.00429733 0)
(-2.42327 -0.006757 0)
(-2.41611 -0.009202 0)
(-2.40725 -0.0116324 5.36716e-20)
(-2.39666 -0.0140452 0)
(-2.38432 -0.0164364 -1.01344e-19)
(-2.37024 -0.018801 -1.46966e-19)
(-2.3544 -0.0211347 9.47977e-20)
(-2.33679 -0.0234324 0)
(-2.31743 -0.0256896 4.42331e-20)
(-2.2963 -0.0279011 0)
(-2.27343 -0.0300619 8.08073e-20)
(-2.24883 -0.032167 -3.88736e-20)
(-2.22252 -0.0342107 -3.70072e-20)
(-2.19452 -0.0361881 0)
(-2.16486 -0.0380934 -9.7942e-20)
(-2.13357 -0.039922 6.15291e-20)
(-2.1007 -0.0416678 2.82965e-20)
(-2.0663 -0.0433272 0)
(-2.0304 -0.0448943 2.40398e-20)
(-1.99306 -0.0463661 6.65133e-20)
(-1.95436 -0.0477374 0)
(-1.91434 -0.0490056 3.57668e-20)
(-1.87308 -0.0501656 3.12135e-20)
(-1.83064 -0.0512175 2.65916e-20)
(-1.7871 -0.0521635 0)
(-1.74253 -0.0530089 0)
(-1.69702 -0.0537425 0)
(-1.65066 -0.0543599 -4.34149e-21)
(-1.60352 -0.0548683 -6.94715e-22)
(-1.55571 -0.0552793 0)
(-1.50729 -0.0555815 7.3328e-21)
(-1.45837 -0.0557762 1.23457e-20)
(-1.40902 -0.0558598 0)
(-1.35934 -0.0558368 2.37076e-20)
(-1.30942 -0.0557043 5.50224e-20)
(-1.25935 -0.0554678 -3.38583e-20)
(-1.20923 -0.0551268 -3.63924e-20)
(-1.15913 -0.0546879 0)
(-1.10916 -0.0541538 0)
(-1.05937 -0.053529 0)
(-1.00986 -0.0528148 -5.90464e-20)
(-0.960689 -0.0520161 6.15663e-20)
(-0.911919 -0.0511421 1.35425e-19)
(-0.863625 -0.0502075 -7.37718e-20)
(-0.81587 -0.0492262 7.62791e-20)
(-0.768705 -0.04821 8.3323e-20)
(-0.722169 -0.0471639 0)
(-0.676291 -0.0460959 0)
(-0.631095 -0.0450117 -9.50664e-20)
(-0.586595 -0.0439224 0)
(-0.542797 -0.0428344 0)
(-0.499696 -0.0417588 2.18432e-19)
(-0.457277 -0.0407017 0)
(-0.415515 -0.0396764 1.16639e-19)
(-0.374376 -0.0386896 -1.22211e-19)
(-0.333813 -0.0377533 0)
(-0.293767 -0.0368731 1.28312e-19)
(-0.254169 -0.0360652 0)
(-0.214937 -0.0353344 0)
(-0.175977 -0.034692 -1.40045e-19)
(-0.137177 -0.0341475 2.8549e-19)
(-0.0984168 -0.033718 -1.46363e-19)
(-0.0595617 -0.0334039 0)
(-0.0204639 -0.0332168 0)
(0.0189945 -0.0331463 1.54055e-19)
(0.0588302 -0.0331423 0)
(0.0992887 -0.0332068 1.55121e-19)
(0.140723 -0.0333587 0)
(0.183471 -0.0335189 0)
(0.227905 -0.0337362 0)
(0.274271 -0.0342155 1.5483e-19)
(0.322658 -0.0350436 0)
(0.373229 -0.0361762 -1.54538e-19)
(0.4262 -0.0375566 0)
(0.481757 -0.0391107 0)
(0.540047 -0.0407709 3.08331e-19)
(0.60108 -0.0424412 -3.08652e-19)
(0.664747 -0.0439758 0)
(0.730567 -0.045138 0)
(0.798192 -0.04537 0)
(0.864136 -0.0437651 9.46639e-19)
(0.932918 -0.0369353 0)
(0.973287 -0.0136288 -6.61994e-19)
(-0.00249659 -0.0433087 -1.02407e-21)
(-0.00763173 -0.0196025 9.55307e-19)
(-0.016391 0.004135 0)
(-0.0273612 0.0248929 -3.8164e-19)
(-0.0398123 0.0428027 0)
(-0.0535077 0.0579313 0)
(-0.0685517 0.0703651 3.35971e-23)
(-0.0850719 0.0803333 1.18731e-19)
(-0.103109 0.0882051 1.119e-19)
(-0.122624 0.0944134 1.06216e-19)
(-0.143532 0.099379 0)
(-0.165731 0.103463 0)
(-0.18913 0.106949 -9.29254e-20)
(-0.213661 0.110052 -1.7893e-19)
(-0.239279 0.11293 1.72806e-19)
(-0.265964 0.115701 0)
(-0.293712 0.118461 1.62738e-19)
(-0.322532 0.121289 -7.93876e-20)
(-0.352439 0.124252 0)
(-0.383437 0.127406 1.52541e-19)
(-0.415491 0.130779 7.5158e-20)
(-0.448519 0.134353 -1.48329e-19)
(-0.482391 0.138047 -7.32629e-20)
(-0.516943 0.141672 0)
(-0.552027 0.144936 1.41974e-19)
(-0.587699 0.147433 1.38994e-19)
(-0.624184 0.149087 0)
(-0.661411 0.150855 1.32364e-19)
(-0.698667 0.153033 0)
(-0.735161 0.155312 1.26576e-19)
(-0.770739 0.157565 6.24324e-20)
(-0.805206 0.158975 0)
(-0.839305 0.158589 0)
(-0.873499 0.157093 0)
(-0.907451 0.155837 0)
(-0.940904 0.153732 0)
(-0.974696 0.151071 0)
(-1.00888 0.149034 1.0507e-19)
(-1.04283 0.14756 -1.54107e-19)
(-1.0762 0.146004 0)
(-1.10924 0.144408 0)
(-1.14203 0.142796 0)
(-1.17461 0.14117 1.49157e-22)
(-1.20699 0.13953 9.28314e-20)
(-1.2392 0.137876 1.82059e-19)
(-1.27125 0.136211 -1.78759e-19)
(-1.30314 0.134536 -8.77154e-20)
(-1.33487 0.132852 8.63666e-20)
(-1.36645 0.131159 -1.71425e-22)
(-1.39788 0.129457 8.3335e-20)
(-1.42914 0.127741 0)
(-1.46023 0.126009 8.06776e-20)
(-1.49113 0.124257 -1.76121e-22)
(-1.52184 0.122479 0)
(-1.55234 0.120672 0)
(-1.58262 0.118829 -7.58685e-20)
(-1.61265 0.116947 0)
(-1.64241 0.11502 0)
(-1.6719 0.113045 7.24439e-20)
(-1.70107 0.111015 1.43179e-19)
(-1.72992 0.108929 -7.07561e-20)
(-1.75841 0.106781 0)
(-1.78652 0.10457 6.88099e-20)
(-1.81423 0.102292 0)
(-1.84149 0.0999439 6.66172e-20)
(-1.86829 0.0975243 6.60278e-20)
(-1.89459 0.0950319 -1.29952e-19)
(-1.92036 0.0924648 -6.39446e-20)
(-1.94557 0.0898227 0)
(-1.97018 0.0871044 1.24735e-19)
(-1.99415 0.0843102 0)
(-2.01747 0.0814393 1.82158e-19)
(-2.04008 0.0784924 1.19677e-19)
(-2.06195 0.0754693 1.18015e-19)
(-2.08304 0.0723713 -1.16361e-19)
(-2.10333 0.0691988 1.72182e-19)
(-2.12276 0.0659539 0)
(-2.1413 0.0626375 0)
(-2.15891 0.0592514 -1.09778e-19)
(-2.17555 0.0557964 -1.6228e-19)
(-2.19118 0.0522748 0)
(-2.20577 0.0486876 5.24784e-20)
(-2.21928 0.0450372 0)
(-2.23166 0.0413248 -1.52238e-19)
(-2.24289 0.0375539 -9.93788e-23)
(-2.25293 0.0337266 8.29317e-23)
(-2.26175 0.0298475 9.63086e-20)
(-2.26932 0.025921 0)
(-2.27561 0.0219547 -9.27863e-20)
(-2.28061 0.0179584 -1.06827e-23)
(-2.28432 0.0139469 0)
(-2.28671 0.00994157 0)
(-2.28777 0.00596396 0)
(-2.28745 0.00202453 8.34503e-20)
(-2.28569 -0.00190236 0)
(-2.28241 -0.00583408 0)
(-2.27757 -0.00975811 0)
(-2.27112 -0.0136676 0)
(-2.26305 -0.0175576 0)
(-2.25333 -0.021422 7.11483e-20)
(-2.24195 -0.0252541 0)
(-2.22888 -0.0290461 6.64939e-20)
(-2.21412 -0.0327902 6.42107e-20)
(-2.19766 -0.0364785 -6.18879e-20)
(-2.1795 -0.0401029 0)
(-2.15964 -0.0436554 -5.71209e-20)
(-2.13808 -0.0471277 0)
(-2.11484 -0.0505115 -5.219e-20)
(-2.08993 -0.0537981 4.96631e-20)
(-2.06337 -0.0569792 1.4218e-19)
(-2.03519 -0.0600461 0)
(-2.00542 -0.0629906 1.26513e-19)
(-1.97408 -0.0658042 4.01919e-20)
(-1.94123 -0.0684792 0)
(-1.9069 -0.0710076 6.84763e-20)
(-1.87114 -0.0733828 6.29344e-20)
(-1.83401 -0.0755981 -8.53846e-20)
(-1.79558 -0.077648 0)
(-1.75589 -0.0795263 -2.23208e-20)
(-1.71502 -0.081228 -1.94126e-20)
(-1.67304 -0.0827502 -5.07989e-20)
(-1.63001 -0.0840942 0)
(-1.58603 -0.0852689 0)
(-1.54116 -0.0862732 0)
(-1.4955 -0.0870918 -6.04499e-21)
(-1.44913 -0.0877295 0)
(-1.40212 -0.0882016 0)
(-1.35457 -0.0885048 -4.431e-21)
(-1.30656 -0.088636 -7.43246e-21)
(-1.25817 -0.0885952 0)
(-1.20949 -0.088385 0)
(-1.1606 -0.0880071 -3.2754e-20)
(-1.1116 -0.0874669 0)
(-1.06257 -0.0867689 4.45019e-20)
(-1.01358 -0.0859212 4.8774e-20)
(-0.964729 -0.084931 0)
(-0.916081 -0.0838062 0)
(-0.867703 -0.0825528 -6.58109e-20)
(-0.819659 -0.0811805 -1.45916e-21)
(-0.772007 -0.0797033 -1.43457e-21)
(-0.724807 -0.0781413 0)
(-0.678116 -0.076514 -1.762e-19)
(-0.631977 -0.074839 0)
(-0.586423 -0.0731271 0)
(-0.541475 -0.0713915 0)
(-0.497151 -0.0696431 1.08597e-19)
(-0.453454 -0.067898 0)
(-0.410383 -0.0661679 -2.33241e-19)
(-0.367923 -0.0644683 -1.22126e-19)
(-0.326052 -0.0628104 0)
(-0.284735 -0.061212 -1.30443e-19)
(-0.243929 -0.0596852 0)
(-0.203577 -0.058246 0)
(-0.163613 -0.0569052 -4.23746e-19)
(-0.123955 -0.0556835 2.89016e-19)
(-0.0845159 -0.0545914 0)
(-0.0451889 -0.0536443 3.02223e-19)
(-0.00585233 -0.0528525 -1.54785e-19)
(0.0335934 -0.0522265 0)
(0.0732731 -0.051768 0)
(0.11338 -0.0514958 0)
(0.154112 -0.0514101 -4.81559e-19)
(0.195675 -0.0515276 0)
(0.238296 -0.0518716 -1.6219e-19)
(0.282201 -0.0524368 0)
(0.327667 -0.0531937 0)
(0.375021 -0.0541837 0)
(0.424525 -0.0554958 0)
(0.476313 -0.0571778 0)
(0.530525 -0.0592102 0)
(0.587306 -0.061536 -3.30879e-19)
(0.646782 -0.0640648 0)
(0.709023 -0.0666921 -1.67281e-19)
(0.773985 -0.0692777 5.03892e-19)
(0.841516 -0.0716022 0)
(0.911145 -0.073302 0)
(0.982506 -0.0736626 -3.444e-19)
(1.05305 -0.0714534 -3.50318e-19)
(1.12661 -0.0632345 3.56036e-19)
(1.18454 -0.0403374 3.68156e-19)
(-0.00858297 -0.0270311 -2.86715e-18)
(-0.0193172 0.00455525 -1.14167e-18)
(-0.0320456 0.0309958 -4.12362e-19)
(-0.0467503 0.0534325 -1.48001e-19)
(-0.0623465 0.0728894 0)
(-0.0785239 0.0897467 2.14463e-19)
(-0.0954393 0.10418 -9.8013e-20)
(-0.113292 0.116367 0)
(-0.132221 0.126558 -8.66909e-20)
(-0.152301 0.135065 0)
(-0.173556 0.142226 1.58637e-19)
(-0.195973 0.148364 0)
(-0.219514 0.153758 7.37341e-20)
(-0.244137 0.158642 1.4275e-19)
(-0.269798 0.163196 -1.38506e-19)
(-0.296454 0.167561 0)
(-0.324061 0.171842 -1.31254e-19)
(-0.352572 0.176115 0)
(-0.381926 0.180424 0)
(-0.412045 0.184782 -1.22958e-19)
(-0.44282 0.189161 0)
(-0.474111 0.193466 1.69313e-23)
(-0.505754 0.197535 0)
(-0.537591 0.201163 0)
(-0.569515 0.204127 -7.19268e-23)
(-0.601503 0.206265 -1.08989e-19)
(-0.633582 0.207647 -1.0601e-19)
(-0.665693 0.208639 -1.03242e-19)
(-0.697584 0.209487 0)
(-0.729021 0.210178 -1.95763e-19)
(-0.759902 0.210562 0)
(-0.790278 0.210358 -9.34967e-20)
(-0.820377 0.2094 0)
(-0.850387 0.207863 0)
(-0.880284 0.205989 8.72491e-20)
(-0.910088 0.203674 0)
(-0.939954 0.201117 -8.32208e-20)
(-0.96986 0.19866 -4.41846e-23)
(-0.999637 0.196353 1.59453e-19)
(-1.02923 0.194059 -1.56147e-19)
(-1.05867 0.191769 0)
(-1.08801 0.189491 0)
(-1.11723 0.187229 -7.35707e-20)
(-1.14636 0.184981 0)
(-1.1754 0.182744 -7.10398e-20)
(-1.20434 0.180513 6.9805e-20)
(-1.2332 0.178283 6.86188e-20)