/*--------------------------------*- C++ -*----------------------------------*\
  =========                 |
  \\      /  F ield         | OpenFOAM: The Open Source CFD Toolbox
   \\    /   O peration     | Website:  https://openfoam.org
    \\  /    A nd           | Version:  8
     \\/     M anipulation  |
\*---------------------------------------------------------------------------*/
/*   Windows 32 and 64 bit porting by blueCAPE: http://www.bluecape.com.pt   *\
|  Based on Windows porting (2.0.x v4) by Symscape: http://www.symscape.com   |
\*---------------------------------------------------------------------------*/
FoamFile
{
    version     2.0;
    format      ascii;
    class       volScalarField;
    location    "288";
    object      epsilon;
}
// * * * * * * * * * * * * * * * * * * * * * * * * * * * * * * * * * * * * * //

dimensions      [0 2 -3 0 0 0 0];

internalField   nonuniform List<scalar> 
12225
(
285.525
270.7
257.923
243.802
232.472
223.072
216.825
212.693
212.739
213.958
217.231
220.906
228.088
232.645
241.417
246.058
256.297
254.729
52.4932
91.8812
106.974
114.746
124.841
136.779
152.682
169.898
191.083
210.923
235.171
255.465
280.943
299.294
324.503
339.405
363.178
378.309
20.5286
34.8726
44.6748
50.4697
55.3938
59.6082
64.66
69.6443
76.3076
83.1832
91.4171
99.3115
108.139
116.911
125.482
135.224
142.393
153.725
16.0023
19.4865
24.081
27.5642
30.4954
32.8702
35.1531
37.2943
39.4992
41.9179
44.3309
47.1997
49.6717
53.0311
55.3933
59.2241
61.3418
65.6296
15.0385
15.7125
17.3988
19.0788
20.6387
22.0263
23.2452
24.4313
25.4428
26.5943
27.5216
28.7565
29.6292
30.9815
31.8062
33.2632
34.0313
35.6473
14.7897
14.8257
15.2495
15.8677
16.5674
17.2871
17.9234
18.5841
19.1187
19.7336
20.1926
20.798
21.2072
21.8207
22.1951
22.8252
23.1559
23.8606
14.7657
14.6146
14.6409
14.7258
14.935
15.22
15.4915
15.8088
16.0708
16.3824
16.6178
16.9197
17.1303
17.4262
17.6143
17.9124
18.0688
18.4082
14.7687
14.5866
14.466
14.3801
14.3677
14.3896
14.4394
14.5334
14.6184
14.7365
14.8307
14.9562
15.0474
15.1758
15.2601
15.3924
15.4615
15.6218
14.768
14.591
14.4349
14.2963
14.185
14.1044
14.0399
14.0066
13.9814
13.9785
13.9808
13.9916
14.0036
14.0298
14.0459
14.0807
14.0964
14.1506
14.7665
14.594
14.432
14.282
14.143
14.0219
13.9115
13.8194
13.737
13.6698
13.6102
13.5633
13.5181
13.4872
13.4515
13.4342
13.4016
13.4007
14.7659
14.5945
14.4322
14.2803
14.1362
14.0032
13.8782
13.7644
13.6582
13.5629
13.4736
13.3952
13.3198
13.2561
13.1916
13.1408
13.0838
13.0451
14.7657
14.5943
14.4321
14.2798
14.1353
13.9999
13.8715
13.7518
13.6385
13.5337
13.4341
13.343
13.2557
13.1771
13.1003
13.0328
12.9647
12.9074
14.7657
14.5941
14.432
14.2794
14.1349
13.9989
13.8699
13.7485
13.6332
13.525
13.422
13.3257
13.2338
13.1484
13.0663
12.9906
12.9172
12.8502
14.7657
14.5939
14.4318
14.279
14.1346
13.9983
13.8692
13.7472
13.6315
13.5223
13.4184
13.3204
13.227
13.139
13.055
12.9759
12.9002
12.8291
14.7657
14.5938
14.4317
14.2787
14.1342
13.9977
13.8686
13.7464
13.6307
13.5211
13.4171
13.3185
13.2249
13.136
13.0516
12.9714
12.8951
12.8227
14.7657
14.5937
14.4315
14.2785
14.1339
13.9973
13.8681
13.7458
13.63
13.5202
13.4161
13.3174
13.2236
13.1346
13.05
12.9696
12.8931
12.8204
14.7657
14.5937
14.4315
14.2783
14.1337
13.997
13.8677
13.7453
13.6294
13.5195
13.4154
13.3165
13.2227
13.1336
13.0489
12.9684
12.8918
12.819
14.7657
14.5937
14.4314
14.2782
14.1335
13.9968
13.8674
13.7449
13.629
13.5191
13.4148
13.3159
13.222
13.1328
13.0481
12.9675
12.8908
12.8179
14.7657
14.5937
14.4314
14.2782
14.1335
13.9967
13.8673
13.7448
13.6288
13.5189
13.4146
13.3156
13.2217
13.1325
13.0477
12.967
12.8903
12.8174
14.7657
14.5937
14.4314
14.2782
14.1336
13.9968
13.8674
13.745
13.629
13.519
13.4148
13.3158
13.2219
13.1327
13.0479
12.9673
12.8906
12.8177
14.7657
14.5937
14.4315
14.2784
14.1337
13.997
13.8677
13.7453
13.6294
13.5195
13.4154
13.3166
13.2229
13.1338
13.0493
12.9689
12.8926
12.8199
14.7657
14.5937
14.4316
14.2785
14.1341
13.9974
13.8685
13.7464
13.6312
13.522
13.419
13.3213
13.2293
13.1418
13.0594
12.981
12.9073
12.8368
14.7659
14.5937
14.4318
14.2788
14.1353
14.0002
13.8742
13.756
13.6463
13.5435
13.4485
13.3591
13.277
13.1992
13.1282
13.0601
12.9988
12.9386
14.7661
14.5928
14.4329
14.2844
14.1515
14.0321
13.9289
13.8375
13.7593
13.6893
13.6306
13.5769
13.5327
13.4905
13.4574
13.423
13.3989
13.3693
14.7641
14.5936
14.461
14.3603
14.3029
14.2767
14.2796
14.294
14.3202
14.3529
14.3959
14.4346
14.4825
14.5217
14.572
14.609
14.6617
14.694
14.757
14.6921
14.758
14.9172
15.1828
15.4611
15.7475
16.0121
16.2724
16.5039
16.7362
16.9387
17.1508
17.3311
17.5311
17.6938
17.8891
18.0362
14.9575
15.4344
16.5693
17.6884
18.7053
19.5678
20.3373
20.997
21.6196
22.1663
22.7191
23.2111
23.7403
24.2048
24.7333
25.1833
25.7257
26.1668
16.2579
20.9389
25.015
27.7588
29.7845
31.3586
32.7769
34.0587
35.3597
36.6169
37.9762
39.2982
40.7628
42.1472
43.7196
45.1758
46.8862
48.3612
29.9428
47.2251
54.8706
58.6738
61.6143
64.4328
67.5805
70.9805
74.74
78.7167
82.9886
87.3487
91.9104
96.4565
101.107
105.631
110.184
114.586
165.79
160.073
154.899
149.564
144.479
139.678
135.613
132.11
129.27
126.974
125.32
124.045
123.34
122.83
122.826
122.983
123.271
123.828
0.154438
0.198799
0.372377
0.525276
0.670035
0.832529
1.02056
1.24451
1.51103
1.81936
2.16432
2.53761
2.93168
3.33899
3.75411
4.17166
4.58797
4.99905
5.40211
5.79395
6.17217
6.53431
6.87784
7.2008
7.5
7.77321
8.01519
8.22162
8.38357
8.4944
8.54072
8.47847
8.26839
7.83773
8.09038
8.36667
8.6445
8.93666
9.09973
9.35199
40.4868
40.8856
41.7315
46.0275
48.5873
52.3735
55.7905
59.664
63.5609
67.7029
71.9788
76.4487
81.086
85.9089
90.9127
96.1047
101.486
107.06
112.829
118.797
124.965
131.335
137.908
144.686
151.668
158.857
166.25
173.849
181.649
189.651
197.851
206.247
214.833
223.608
232.564
241.698
251
260.467
270.089
279.859
289.766
299.803
309.957
320.22
330.576
341.016
351.523
362.086
372.685
383.306
393.928
404.527
415.081
425.562
435.946
446.208
456.339
466.358
476.347
486.151
495.835
505.354
514.71
523.878
532.848
541.602
550.125
558.403
566.42
574.165
581.62
588.776
595.617
602.132
608.309
614.138
619.608
624.709
629.434
633.775
637.723
641.272
644.414
647.146
649.461
651.361
652.837
653.88
654.557
654.853
654.653
653.99
652.878
651.452
649.685
647.442
644.833
641.838
638.471
634.744
630.666
626.25
621.512
616.455
611.094
605.442
599.514
593.323
586.884
580.213
573.324
566.233
558.956
551.507
543.903
536.159
528.292
520.316
512.251
504.116
495.944
487.801
480.108
475.236
472.039
468.957
465.85
462.705
459.528
456.322
453.093
449.841
446.559
443.232
439.825
436.256
432.368
427.714
421.41
396.328
0.795368
0.496887
0.503202
0.567778
0.667496
0.797102
0.958691
1.15473
1.38587
1.6503
1.94411
2.26264
2.60106
2.95523
3.32149
3.69704
4.0795
4.46722
4.85901
5.2544
5.65352
6.05706
6.46655
6.88345
7.31002
7.7469
8.19465
8.68716
9.23633
9.86837
10.6424
11.6641
12.9302
13.5838
15.4012
15.6087
17.9998
18.5908
19.9068
21.8253
24.9486
25.8991
27.4124
29.1297
30.7427
32.5126
34.291
36.1641
38.0848
40.0802
42.1385
44.268
46.4667
48.7375
51.0806
53.4976
55.989
58.5557
61.1982
63.9172
66.7128
69.5854
72.5348
75.5611
78.6638
81.8427
85.0969
88.4258
91.8282
95.3032
98.8492
102.465
106.148
109.897
113.709
117.582
121.513
125.5
129.54
133.628
137.761
141.936
146.148
150.393
154.666
158.963
163.276
167.601
171.932
176.261
180.581
184.885
189.165
193.415
197.631
201.813
205.973
210.137
214.364
218.52
222.628
226.675
230.658
234.569
238.403
242.154
245.816
249.384
252.85
256.211
259.46
262.593
265.604
268.488
271.24
273.857
276.333
278.666
280.851
282.885
284.764
286.486
288.048
289.447
290.682
291.751
292.653
293.389
293.964
294.369
294.588
294.628
294.5
294.229
293.805
293.202
292.444
291.526
290.454
289.23
287.858
286.342
284.686
282.895
280.971
278.921
276.748
274.459
272.059
269.553
266.948
264.248
261.459
258.588
255.641
252.624
249.542
246.403
243.213
239.981
236.719
233.455
230.307
227.696
225.457
223.29
221.128
218.96
216.787
214.609
212.431
210.256
208.084
205.917
203.756
201.603
199.443
197.334
195.238
191.761
1.70618
0.885755
0.798772
0.831742
0.915613
1.03804
1.1966
1.39074
1.61918
1.87927
2.16719
2.47878
2.81006
3.15781
3.51946
3.89328
4.27814
4.67366
5.08009
5.49849
5.93081
6.37985
6.84963
7.34505
7.87267
8.44023
9.05936
9.71853
10.4274
11.1927
12.0161
12.8875
13.82
14.731
15.7307
16.6511
17.8007
18.8375
20.0609
21.4063
22.788
24.004
25.3304
26.7067
28.1136
29.58
31.0942
32.6642
34.2858
35.962
37.6924
39.4782
41.3199
43.2183
45.1739
47.1871
49.2585
51.3885
53.5775
55.8257
58.1332
60.5002
62.9264
65.4118
67.9562
70.5592
73.2203
75.9388
78.7142
81.5454
84.4314
87.3712
90.3633
93.4063
96.4985
99.6381
102.823
106.051
109.32
112.628
115.971
119.347
122.753
126.184
129.639
133.112
136.601
140.101
143.608
147.117
150.624
154.126
157.619
161.1
164.57
168.027
171.477
174.923
178.356
181.748
185.099
188.403
191.654
194.849
197.981
201.046
204.039
206.955
209.79
212.539
215.197
217.761
220.225
222.586
224.841
226.984
229.014
230.926
232.718
234.386
235.929
237.343
238.627
239.778
240.796
241.678
242.424
243.035
243.509
243.844
244.025
244.071
243.985
243.769
243.424
242.941
242.328
241.585
240.715
239.722
238.608
237.376
236.029
234.571
233.005
231.335
229.566
227.702
225.746
223.704
221.58
219.38
217.106
214.766
212.362
209.901
207.388
204.827
202.224
199.587
196.924
194.255
191.636
189.205
186.926
184.702
182.493
180.289
178.088
175.893
173.707
171.533
169.374
167.237
165.128
163.063
161.058
159.204
157.543
155.912
2.76295
1.32561
1.13572
1.13728
1.21366
1.3373
1.50019
1.69917
1.9318
2.1952
2.48591
2.80035
3.13523
3.4879
3.85643
4.2397
4.63726
5.0493
5.47672
5.92106
6.38467
6.87059
7.38273
7.92537
8.50328
9.12035
9.77937
10.479
11.2192
11.998
12.8131
13.6513
14.5056
15.3824
16.2903
17.2346
18.2426
19.2922
20.4114
21.585
22.7927
24.0206
25.2999
26.6224
27.9866
29.3978
30.8566
32.3649
33.9229
35.5317
37.192
38.9046
40.6701
42.4892
44.3627
46.2909
48.2743
50.3135
52.4088
54.5608
56.7695
59.0353
61.3583
63.7385
66.1759
68.6704
71.2217
73.8294
76.493
79.2118
81.9851
84.812
87.6913
90.6219
93.6022
96.6307
99.7056
102.825
105.987
109.189
112.428
115.702
119.008
122.343
125.703
129.086
132.487
135.904
139.331
142.767
146.206
149.646
153.083
156.514
159.938
163.353
166.758
170.147
173.51
176.836
180.121
183.36
186.548
189.678
192.747
195.749
198.679
201.533
204.305
206.99
209.585
212.085
214.486
216.783
218.973
221.052
223.017
224.865
226.591
228.195
229.672
231.021
232.24
233.327
234.28
235.098
235.782
236.329
236.741
237.009
237.123
237.121
236.981
236.71
236.307
235.772
235.107
234.315
233.399
232.361
231.205
229.933
228.549
227.057
225.46
223.763
221.969
220.083
218.11
216.054
213.919
211.711
209.434
207.093
204.693
202.24
199.737
197.19
194.605
191.988
189.348
186.7
184.077
181.538
179.078
176.66
174.259
171.87
169.491
167.125
164.774
162.443
160.137
157.863
155.63
153.457
151.375
149.47
147.788
146.319
3.83442
1.77986
1.48159
1.45121
1.51683
1.63872
1.80334
2.00502
2.24026
2.50595
2.79891
3.11599
3.45437
3.81178
4.1866
4.57791
4.98544
5.40946
5.8508
6.3108
6.79136
7.29482
7.82409
8.38223
8.97249
9.59738
10.2586
10.9557
11.6872
12.4491
13.2361
14.0498
14.8964
15.77
16.6738
17.6201
18.6194
19.6687
20.7701
21.9183
23.1084
24.3391
25.6154
26.9367
28.303
29.716
31.1771
32.6877
34.2487
35.8612
37.526
39.2442
41.0168
42.8446
44.7288
46.6698
48.6682
50.7247
52.84
55.0148
57.2495
59.5447
61.9009
64.3183
66.7971
69.3376
71.9396
74.6032
77.3279
80.1135
82.9593
85.8646
88.8285
91.8499
94.9276
98.0599
101.245
104.482
107.767
111.1
114.476
117.894
121.35
124.842
128.365
131.917
135.494
139.092
142.706
146.334
149.97
153.612
157.254
160.894
164.527
168.147
171.75
175.329
178.877
182.388
185.854
189.272
192.634
195.935
199.169
202.331
205.416
208.418
211.331
214.151
216.872
219.49
222
224.398
226.68
228.841
230.878
232.788
234.567
236.213
237.722
239.093
240.322
241.41
242.353
243.152
243.805
244.311
244.671
244.869
244.925
244.844
244.618
244.25
243.741
243.093
242.308
241.389
240.339
239.16
237.858
236.434
234.894
233.241
231.479
229.613
227.648
225.588
223.438
221.204
218.89
216.502
214.045
211.524
208.945
206.313
203.632
200.91
198.151
195.362
192.551
189.73
186.922
184.156
181.436
178.747
176.078
173.425
170.789
168.172
165.578
163.012
160.481
157.993
155.562
153.21
150.97
148.919
147.092
145.449
4.86197
2.2229
1.81708
1.7542
1.80694
1.92444
2.08798
2.28953
2.52457
2.7897
3.08189
3.39833
3.73654
4.09452
4.47086
4.86471
5.27581
5.70434
6.151
6.61677
7.10312
7.61172
8.14468
8.70414
9.2925
9.91176
10.5636
11.2489
11.9677
12.7189
13.5013
14.3142
15.1584
16.0413
16.968
17.9385
18.9513
20.0093
21.1141
22.2649
23.4609
24.7026
25.9912
27.3275
28.712
30.146
31.6307
33.1676
34.7578
36.4026
38.1033
39.8609
41.6768
43.5518
45.487
47.4837
49.5433
51.6668
53.8552
56.1096
58.4308
60.8198
63.2772
65.8038
68.4
71.0663
73.8031
76.6104
79.4882
82.4363
85.4543
88.5417
91.6975
94.9207
98.2102
101.564
104.981
108.459
111.996
115.589
119.235
122.931
126.674
130.461
134.287
138.15
142.043
145.964
149.907
153.868
157.843
161.825
165.81
169.793
173.767
177.728
181.667
185.579
189.455
193.29
197.077
200.808
204.478
208.079
211.607
215.053
218.412
221.677
224.844
227.905
230.855
233.69
236.403
238.99
241.446
243.767
245.948
247.987
249.879
251.621
253.211
254.645
255.923
257.042
258
258.798
259.433
259.907
260.212
260.342
260.326
260.15
259.815
259.324
258.678
257.88
256.932
255.838
254.602
253.227
251.718
250.078
248.313
246.427
244.424
242.311
240.093
237.774
235.361
232.859
230.275
227.613
224.88
222.082
219.225
216.315
213.357
210.357
207.323
204.26
201.176
198.082
194.993
191.927
188.892
185.883
182.895
179.928
176.984
174.065
171.177
168.326
165.519
162.768
160.085
157.497
155.036
152.768
150.709
148.771
5.80704
2.63726
2.1284
2.03277
2.07089
2.18166
2.34145
2.54002
2.77185
3.03324
3.32119
3.63312
3.96686
4.32063
4.6932
5.0838
5.49223
5.91863
6.36363
6.82808
7.31324
7.82047
8.35149
8.90802
9.49201
10.1053
10.7497
11.4266
12.1372
12.8821
13.662
14.4775
15.3303
16.223
17.1577
18.1357
19.1577
20.2251
21.3391
22.5004
23.7094
24.9672
26.275
27.6338
29.0447
30.509
32.0282
33.6038
35.2374
36.9305
38.6846
40.5014
42.3823
44.3289
46.3427
48.4254
50.5784
52.8035
55.1019
57.4751
59.9245
62.4513
65.0566
67.7415
70.5069
73.3535
76.2819
79.2927
82.3858
85.5614
88.8193
92.1588
95.5794
99.0799
102.659
106.315
110.047
113.851
117.726
121.668
125.675
129.742
133.867
138.045
142.272
146.543
150.852
155.196
159.568
163.963
168.376
172.799
177.226
181.651
186.067
190.466
194.841
199.184
203.487
207.742
211.942
216.079
220.147
224.136
228.04
231.852
235.564
239.169
242.661
246.032
249.277
252.389
255.362
258.192
260.872
263.398
265.765
267.969
270.007
271.875
273.57
275.089
276.43
277.592
278.573
279.373
279.99
280.425
280.664
280.725
280.613
280.321
279.854
279.212
278.398
277.416
276.269
274.96
273.496
271.879
270.115
268.209
266.166
263.991
261.692
259.273
256.741
254.102
251.363
248.529
245.609
242.608
239.533
236.391
233.188
229.932
226.628
223.283
219.905
216.499
213.075
209.64
206.207
202.79
199.396
196.025
192.679
189.358
186.065
182.806
179.586
176.411
173.291
170.236
167.264
164.399
161.671
159.137
156.794
154.512
6.6422
3.00965
2.40526
2.27727
2.29947
2.40142
2.55501
2.74797
2.97385
3.22855
3.50912
3.81314
4.13866
4.48415
4.84856
5.23126
5.63212
6.05133
6.48956
6.94767
7.42687
7.92847
8.45404
9.00516
9.58322
10.1902
10.828
11.4983
12.2026
12.9423
13.7189
14.5336
15.3879
16.2837
17.2223
18.2053
19.2339
20.3095
21.4335
22.607
23.8313
25.1077
26.4377
27.8229
29.2646
30.7646
32.3248
33.947
35.6331
37.3852
39.2051
41.0949
43.0565
45.0921
47.2035
49.393
51.6626
54.0141
56.4497
58.9712
61.5803
64.2788
67.0684
69.9504
72.9261
75.9967
79.1631
82.426
85.7858
89.2426
92.7965
96.447
100.193
104.034
107.969
111.995
116.111
120.313
124.6
128.967
133.411
137.928
142.514
147.163
151.871
156.632
161.44
166.289
171.172
176.083
181.015
185.959
190.909
195.856
200.791
205.707
210.594
215.444
220.248
224.996
229.68
234.292
238.822
243.262
247.604
251.839
255.959
259.955
263.821
267.548
271.129
274.558
277.828
280.932
283.864
286.621
289.195
291.584
293.783
295.787
297.595
299.204
300.61
301.813
302.811
303.605
304.193
304.571
304.733
304.702
304.47
304.037
303.408
302.585
301.571
300.369
298.986
297.424
295.69
293.788
291.725
289.507
287.14
284.63
281.985
279.21
276.314
273.303
270.186
266.969
263.66
260.267
256.797
253.258
249.657
246.002
242.3
238.558
234.783
230.984
227.167
223.342
219.519
215.708
211.918
208.152
204.414
200.706
197.034
193.402
189.818
186.288
182.823
179.436
176.142
172.966
169.936
167.098
164.435
161.788
7.35053
3.33135
2.64112
2.48184
2.48724
2.5786
2.72386
2.90892
3.12648
3.3721
3.64277
3.93622
4.25071
4.5849
4.93798
5.30948
5.69934
6.10765
6.53526
6.98322
7.45281
7.9454
8.46259
9.00612
9.5778
10.1787
10.8106
11.475
12.1737
12.9084
13.6807
14.4922
15.3446
16.2395
17.1784
18.1632
19.1952
20.2763
21.4082
22.5925
23.8316
25.1283
26.4835
27.8986
29.375
30.9154
32.5222
34.198
35.9451
37.766
39.663
41.6389
43.696
45.8369
48.0643
50.3808
52.7889
55.2912
57.8902
60.5884
63.388
66.2914
69.3005
72.4173
75.6435
78.9806
82.4298
85.992
89.668
93.458
97.362
101.38
105.51
109.752
114.104
118.564
123.129
127.797
132.564
137.425
142.377
147.415
152.534
157.727
162.988
168.312
173.69
179.116
184.581
190.078
195.598
201.132
206.671
212.205
217.725
223.22
228.681
234.097
239.458
244.754
249.974
255.11
260.15
265.086
269.907
274.603
279.166
283.587
287.855
291.965
295.906
299.671
303.254
306.646
309.843
312.837
315.624
318.199
320.557
322.695
324.609
326.296
327.755
328.984
329.983
330.75
331.286
331.582
331.649
331.491
331.108
330.503
329.679
328.639
327.387
325.929
324.269
322.413
320.368
318.14
315.735
313.161
310.426
307.536
304.499
301.324
298.019
294.591
291.05
287.404
283.662
279.832
275.923
271.943
267.9
263.803
259.66
255.479
251.268
247.034
242.785
238.531
234.28
230.042
225.826
221.636
217.479
213.358
209.28
205.251
201.277
197.368
193.533
189.787
186.146
182.632
179.272
176.102
173.093
170.07
7.923
3.59774
2.83314
2.64332
2.63232
2.71161
2.84674
3.02202
3.22936
3.46403
3.72294
4.00394
4.30544
4.62614
4.9656
5.32386
5.70143
6.09943
6.51757
6.95648
7.41725
7.90117
8.40969
8.94425
9.50617
10.0973
10.7194
11.3744
12.0643
12.7909
13.556
14.3615
15.2092
16.1012
17.0392
18.0252
19.0613
20.1495
21.2919
22.4906
23.7477
25.065
26.4452
27.8912
29.4067
30.9934
32.6544
34.3927
36.2115
38.1135
40.1018
42.1795
44.3498
46.6159
48.981
51.4483
54.021
56.7023
59.4954
62.4032
65.4287
68.5746
71.8434
75.2376
78.7591
82.41
86.1915
90.105
94.1511
98.3303
102.643
107.087
111.663
116.37
121.204
126.163
131.245
136.445
141.76
147.184
152.713
158.341
164.06
169.865
175.747
181.7
187.714
193.78
199.89
206.033
212.201
218.381
224.564
230.738
236.893
243.015
249.095
255.12
261.079
266.959
272.751
278.441
284.02
289.476
294.797
299.974
304.996
309.852
314.534
319.031
323.335
327.438
331.331
335.006
338.458
341.68
344.666
347.411
349.911
352.16
354.158
355.9
357.385
358.611
359.579
360.287
360.736
360.921
360.853
360.531
359.959
359.142
358.082
356.784
355.254
353.496
351.517
349.325
346.926
344.328
341.538
338.566
335.419
332.106
328.637
325.019
321.263
317.378
313.374
309.26
305.045
300.74
296.354
291.896
287.376
282.802
278.184
273.529
268.848
264.147
259.435
254.722
250.015
245.324
240.658
236.023
231.425
226.871
222.367
217.92
213.538
209.23
205.007
200.883
196.874
193.001
189.288
185.765
182.393
178.99
8.35831
3.80723
2.98067
2.76232
2.73528
2.8016
2.92526
3.08928
3.28498
3.50732
3.75302
4.02044
4.30869
4.61771
4.94617
5.29345
5.65947
6.04409
6.44799
6.8726
7.31925
7.78926
8.28406
8.80516
9.35426
9.93336
10.5444
11.1892
11.8695
12.5875
13.3452
14.1447
14.9881
15.8778
16.8158
17.8047
18.8469
19.9447
21.1009
22.318
23.5989
24.9465
26.3639
27.8542
29.419
31.062
32.7889
34.6039
36.5106
38.5122
40.6125
42.8151
45.1239
47.5427
50.0755
52.7262
55.4987
58.3969
61.4244
64.5848
67.8817
71.3184
74.8977
78.6225
82.4952
86.5177
90.6919
95.0188
99.4993
104.134
108.921
113.862
118.953
124.194
129.581
135.112
140.782
146.586
152.52
158.578
164.753
171.037
177.424
183.905
190.471
197.113
203.821
210.583
217.39
224.23
231.091
237.962
244.829
251.681
258.503
265.284
272.009
278.667
285.243
291.724
298.099
304.353
310.475
316.453
322.274
327.926
333.398
338.679
343.759
348.628
353.275
357.691
361.869
365.801
369.478
372.895
376.046
378.925
381.528
383.851
385.891
387.645
389.113
390.292
391.184
391.788
392.104
392.134
391.882
391.347
390.539
389.461
388.119
386.516
384.659
382.555
380.212
377.638
374.84
371.828
368.61
365.197
361.598
357.822
353.88
349.781
345.537
341.159
336.655
332.039
327.319
322.507
317.613
312.647
307.62
302.542
297.421
292.268
287.092
281.9
276.703
271.508
266.325
261.163
256.03
250.934
245.882
240.88
235.937
231.059
226.256
221.536
216.911
212.396
208.005
203.759
199.678
195.787
192.042
188.26
8.66199
3.96131
3.0855
2.84174
2.79902
2.85186
2.96308
3.11467
3.29781
3.50791
3.74284
3.99942
4.27589
4.5707
4.88344
5.2145
5.56421
5.93313
6.32259
6.73333
7.16646
7.62328
8.10528
8.61407
9.15144
9.7193
10.3197
10.9546
11.6262
12.3368
13.0887
13.8845
14.7265
15.6175
16.5601
17.5572
18.6119
19.7272
20.9061
22.1519
23.4683
24.8591
26.327
27.8741
29.5038
31.2243
33.0399
34.9555
36.9771
39.1084
41.3535
43.7167
46.2028
48.8163
51.5618
54.4441
57.4676
60.6369
63.9563
67.4299
71.0617
74.8553
78.8141
82.9409
87.2384
91.7085
96.3529
101.173
106.168
111.339
116.684
122.202
127.892
133.749
139.771
145.952
152.289
158.774
165.402
172.165
179.054
186.063
193.18
200.396
207.701
215.084
222.532
230.033
237.576
245.146
252.731
260.316
267.888
275.432
282.933
290.378
297.75
305.037
312.223
319.294
326.236
333.034
339.676
346.148
352.437
358.53
364.415
370.081
375.515
380.708
385.65
390.33
394.741
398.873
402.72
406.275
409.532
412.486
415.132
417.467
419.488
421.193
422.582
423.653
424.407
424.846
424.97
424.786
424.288
423.482
422.38
420.986
419.306
417.344
415.109
412.609
409.851
406.847
403.604
400.133
396.445
392.549
388.458
384.181
379.73
375.116
370.352
365.448
360.416
355.269
350.017
344.673
339.247
333.752
328.197
322.594
316.953
311.284
305.597
299.9
294.202
288.514
282.843
277.199
271.59
266.025
260.511
255.056
249.667
244.352
239.121
233.984
228.952
224.038
219.258
214.63
210.172
205.907
201.785
197.628
8.84622
4.06457
3.15138
2.88557
2.82788
2.86705
2.96602
3.10718
3.28023
3.47922
3.70003
3.94111
4.20153
4.48075
4.77888
5.09574
5.43164
5.78715
6.16322
6.56084
6.98123
7.4258
7.89613
8.39397
8.92126
9.48004
10.0725
10.701
11.368
12.0761
12.8282
13.6271
14.4759
15.3776
16.3355
17.3532
18.4345
19.5836
20.8033
22.0974
23.4688
24.9183
26.4543
28.0839
29.8136
31.6484
33.5935
35.6547
37.8381
40.1491
42.5927
45.1744
47.8996
50.7737
53.802
56.9899
60.3424
63.8646
67.5612
71.4366
75.4951
79.7403
84.1756
88.8038
93.6271
98.6471
103.865
109.281
114.894
120.704
126.709
132.906
139.291
145.86
152.608
159.529
166.617
173.863
181.26
188.798
196.468
204.259
212.16
220.159
228.243
236.401
244.617
252.879
261.171
269.48
277.789
286.085
294.35
302.569
310.727
318.807
326.793
334.67
342.421
350.032
357.487
364.772
371.871
378.772
385.46
391.922
398.145
404.117
409.827
415.263
420.416
425.275
429.833
434.08
438.01
441.616
444.892
447.833
450.437
452.698
454.616
456.189
457.416
458.298
458.835
459.031
458.892
458.416
457.597
456.453
454.991
453.216
451.135
448.755
446.084
443.132
439.909
436.425
432.69
428.716
424.515
420.099
415.478
410.666
405.675
400.516
395.204
389.75
384.167
378.469
372.666
366.773
360.801
354.762
348.669
342.531
336.36
330.168
323.962
317.754
311.553
305.367
299.206
293.079
286.994
280.961
274.987
269.079
263.247
257.498
251.842
246.288
240.849
235.537
230.368
225.358
220.522
215.881
211.385
206.866
8.90531
4.11661
3.1807
2.89752
2.82736
2.85656
2.94535
3.07386
3.23273
3.41701
3.62386
3.85156
4.09888
4.36523
4.65047
4.95473
5.27842
5.62223
5.9871
6.37416
6.78478
7.22052
7.68317
8.17473
8.69743
9.25363
9.84582
10.4767
11.1491
11.8663
12.6317
13.4496
14.323
15.2555
16.2507
17.3124
18.4435
19.6458
20.9272
22.2938
23.7516
25.3082
26.9689
28.7402
30.629
32.6416
34.7847
37.0653
39.4901
42.0651
44.7969
47.6923
50.7575
53.9987
57.4217
61.0321
64.8351
68.836
73.0393
77.4493
82.0698
86.9042
91.9549
97.2239
102.712
108.421
114.349
120.496
126.86
133.437
140.225
147.218
154.412
161.799
169.373
177.125
185.048
193.131
201.363
209.734
218.232
226.845
235.559
244.361
253.236
262.169
271.146
280.151
289.168
298.181
307.173
316.128
325.029
333.859
342.6
351.236
359.751
368.127
376.349
384.399
392.263
399.925
407.371
414.585
421.554
428.264
434.703
440.859
446.72
452.275
457.514
462.428
467.008
471.246
475.136
478.672
481.848
484.661
487.106
489.181
490.885
492.218
493.178
493.77
493.994
493.858
493.363
492.496
491.278
489.716
487.818
485.591
483.04
480.177
477.009
473.549
469.806
465.793
461.521
457.002
452.25
447.277
442.096
436.72
431.163
425.438
419.558
413.538
407.391
401.129
394.768
388.319
381.796
375.211
368.577
361.905
355.207
348.494
341.776
335.062
328.364
321.688
315.046
308.446
301.896
295.405
288.981
282.633
276.369
270.196
264.125
258.166
252.33
246.629
241.078
235.693
230.486
225.478
220.617
215.751
8.88685
4.12661
3.18035
2.88771
2.80792
2.82424
2.89952
3.01529
3.16215
3.33476
3.53008
3.74637
3.98263
4.23839
4.5136
4.80856
5.12388
5.46045
5.81937
6.20198
6.60985
7.04485
7.50912
8.00512
8.53588
9.10456
9.71366
10.3664
11.0661
11.8165
12.6205
13.4799
14.4001
15.3874
16.4476
17.5863
18.8098
20.1254
21.5383
23.0556
24.6848
26.434
28.3105
30.3218
32.4757
34.7799
37.2422
39.8705
42.6724
45.6555
48.8277
52.1969
55.7705
59.5546
63.5544
67.7748
72.2204
76.8953
81.8031
86.9469
92.3288
97.9504
103.813
109.915
116.257
122.836
129.651
136.696
143.969
151.462
159.171
167.087
175.204
183.511
191.999
200.659
209.478
218.445
227.547
236.771
246.104
255.531
265.037
274.607
284.225
293.876
303.544
313.21
322.859
332.473
342.035
351.529
360.935
370.238
379.42
388.462
397.35
406.065
414.591
422.912
431.012
438.877
446.491
453.841
460.912
467.692
474.169
480.33
486.165
491.662
496.814
501.611
506.045
510.109
513.797
517.104
520.026
522.558
524.699
526.447
527.801
528.763
529.329
529.511
529.313
528.731
527.757
526.411
524.7
522.631
520.214
517.456
514.364
510.95
507.224
503.199
498.885
494.296
489.445
484.344
479.008
473.451
467.685
461.726
455.588
449.284
442.829
436.237
429.522
422.699
415.782
408.783
401.717
394.597
387.434
380.242
373.032
365.815
358.602
351.403
344.226
337.082
329.98
322.928
315.934
309.009
302.158
295.392
288.717
282.143
275.678
269.333
263.118
257.047
251.131
245.386
239.824
234.463
229.254
224.066
8.82836
4.11671
3.1639
2.85854
2.76647
2.77186
2.83674
2.94237
3.07938
3.24268
3.42942
3.63802
3.86765
4.11803
4.38934
4.68217
4.99759
5.33729
5.70268
6.09522
6.51694
6.97019
7.45748
7.98133
8.54366
9.14639
9.79549
10.496
11.2529
12.0714
12.9572
13.9174
14.9578
16.0847
17.3054
18.6277
20.06
21.6112
23.2895
25.1039
27.0635
29.1777
31.4557
33.9067
36.5396
39.3633
42.3859
45.6145
49.0557
52.7193
56.6145
60.7507
65.1395
69.7821
74.6798
79.8344
85.2475
90.9201
96.8525
103.044
109.495
116.201
123.16
130.368
137.82
145.511
153.435
161.583
169.947
178.52
187.291
196.25
205.387
214.689
224.145
233.742
243.466
253.305
263.243
273.266
283.36
293.509
303.698
313.91
324.13
334.341
344.526
354.669
364.753
374.761
384.677
394.482
404.16
413.694
423.068
432.264
441.267
450.061
458.629
466.956
475.027
482.829
490.347
497.567
504.478
511.068
517.324
523.236
528.794
533.988
538.811
543.255
547.312
550.977
554.245
557.111
559.572
561.626
563.269
564.506
565.33
565.756
565.757
565.401
564.61
563.428
561.858
559.908
557.586
554.902
551.863
548.478
544.757
540.712
536.354
531.697
526.752
521.533
516.054
510.33
504.374
498.202
491.827
485.265
478.529
471.635
464.598
457.432
450.152
442.773
435.308
427.771
420.176
412.536
404.865
397.173
389.473
381.777
374.094
366.434
358.807
351.223
343.688
336.213
328.806
321.474
314.227
307.071
300.015
293.066
286.235
279.53
272.962
266.543
260.286
254.203
248.305
242.614
237.077
231.595
8.7071
4.08184
3.12657
2.81417
2.71552
2.71444
2.77341
2.87413
3.00751
3.16881
3.35571
3.56723
3.80253
4.06163
4.34509
4.65377
4.98857
5.34977
5.7395
6.1615
6.61922
7.11633
7.65686
8.24539
8.88743
9.58925
10.356
11.1945
12.1119
13.1165
14.217
15.4228
16.7434
18.1884
19.7683
21.4939
23.3765
25.4278
27.659
30.0814
32.7063
35.5443
38.6055
41.8999
45.4366
49.2238
53.2685
57.5765
62.1536
67.0059
72.1389
77.5596
83.2731
89.2716
95.551
102.107
108.934
116.029
123.384
130.993
138.848
146.943
155.269
163.816
172.576
181.538
190.691
200.026
209.53
219.192
229.001
238.944
249.009
259.183
269.452
279.805
290.226
300.703
311.22
321.766
332.324
342.881
353.421
363.931
374.395
384.798
395.125
405.36
415.488
425.494
435.363
445.079
454.626
463.99
473.155
482.106
490.829
499.309
507.532
515.485
523.152
530.522
537.583
544.322
550.728
556.791
562.502
567.849
572.824
577.419
581.628
585.444
588.861
591.873
594.479
596.674
598.453
599.823
600.769
601.313
601.425
601.164
600.473
599.375
597.877
595.987
593.711
591.056
588.033
584.652
580.92
576.846
572.442
567.721
562.695
557.376
551.779
545.916
539.804
533.455
526.886
520.111
513.144
506.001
498.696
491.245
483.662
475.962
468.161
460.271
452.308
444.285
436.215
428.112
419.988
411.856
403.726
395.609
387.517
379.458
371.441
363.475
355.569
347.73
339.967
332.287
324.699
317.208
309.824
302.554
295.406
288.39
281.515
274.793
268.236
261.856
255.662
249.676
243.847
238.114
8.58627
4.02845
3.08114
2.77012
2.67192
2.67221
2.735
2.84198
2.98415
3.15692
3.35753
3.58379
3.83717
4.11895
4.43077
4.77479
5.15387
5.57198
6.03305
6.5415
7.1029
7.72364
8.41102
9.1732
10.0193
10.9592
12.0031
13.1623
14.4492
15.877
17.4594
19.2107
21.1453
23.2778
25.6235
28.1966
31.0112
34.0803
37.4163
41.031
44.9346
49.1349
53.638
58.4491
63.5732
69.012
74.764
80.8274
87.2019
93.8851
100.872
108.174
115.749
123.587
131.678
140.01
148.569
157.344
166.322
175.49
184.836
194.349
204.015
213.823
223.762
233.82
243.985
254.246
264.592
275.012
285.495
296.03
306.606
317.211
327.835
338.466
349.094
359.707
370.293
380.841
391.341
401.779
412.143