/*--------------------------------*- C++ -*----------------------------------*\
  =========                 |
  \\      /  F ield         | OpenFOAM: The Open Source CFD Toolbox
   \\    /   O peration     | Website:  https://openfoam.org
    \\  /    A nd           | Version:  8
     \\/     M anipulation  |
\*---------------------------------------------------------------------------*/
/*   Windows 32 and 64 bit porting by blueCAPE: http://www.bluecape.com.pt   *\
|  Based on Windows porting (2.0.x v4) by Symscape: http://www.symscape.com   |
\*---------------------------------------------------------------------------*/
FoamFile
{
    version     2.0;
    format      ascii;
    class       volScalarField;
    location    "288";
    object      k;
}
// * * * * * * * * * * * * * * * * * * * * * * * * * * * * * * * * * * * * * //

dimensions      [0 2 -2 0 0 0 0];

internalField   nonuniform List<scalar> 
12225
(
0.362817
0.343986
0.327752
0.309809
0.295412
0.283467
0.275529
0.270278
0.270339
0.271865
0.276075
0.280631
0.289955
0.295499
0.307036
0.312266
0.326994
0.335204
0.440186
0.468697
0.461606
0.448367
0.450346
0.458307
0.474579
0.498484
0.524414
0.552059
0.580733
0.606097
0.633789
0.653776
0.679645
0.693048
0.717191
0.728537
0.39054
0.417873
0.420232
0.416827
0.411628
0.407802
0.408021
0.410033
0.414566
0.42138
0.430719
0.4397
0.451147
0.461134
0.472781
0.483504
0.493372
0.505924
0.377546
0.386982
0.391407
0.391343
0.390221
0.387895
0.385664
0.384079
0.382884
0.382895
0.383384
0.38432
0.386288
0.388461
0.390893
0.394228
0.39647
0.400948
0.374562
0.37609
0.378412
0.378666
0.378263
0.377204
0.37549
0.373737
0.37201
0.370455
0.369258
0.368105
0.367379
0.366802
0.36644
0.366327
0.366334
0.366686
0.373814
0.372709
0.372645
0.372384
0.371761
0.370816
0.369554
0.368083
0.366572
0.364977
0.363529
0.362063
0.360755
0.359529
0.358397
0.357425
0.356436
0.355778
0.373782
0.371742
0.370386
0.369287
0.368234
0.367114
0.365915
0.364587
0.363239
0.361808
0.360423
0.359024
0.357679
0.356384
0.355122
0.353967
0.352795
0.351803
0.37382
0.37156
0.369634
0.367976
0.366501
0.365108
0.363776
0.36243
0.361108
0.359767
0.358451
0.357145
0.355865
0.354624
0.353403
0.352252
0.351101
0.350054
0.373832
0.371553
0.369449
0.367525
0.365777
0.364154
0.362645
0.361199
0.359818
0.358474
0.357171
0.355904
0.354669
0.353477
0.35231
0.351198
0.3501
0.349075
0.373831
0.37156
0.369418
0.367405
0.365529
0.363773
0.362133
0.360585
0.359122
0.357728
0.356395
0.355119
0.353889
0.352712
0.351571
0.350483
0.349422
0.348422
0.373829
0.37156
0.369413
0.367378
0.365458
0.363645
0.361937
0.360324
0.358799
0.357353
0.35598
0.354673
0.353425
0.352237
0.351096
0.35001
0.348961
0.347971
0.373828
0.371558
0.369409
0.36737
0.365439
0.363609
0.361876
0.360234
0.358678
0.357202
0.3558
0.354469
0.353201
0.351995
0.350843
0.349748
0.348696
0.347702
0.373827
0.371556
0.369405
0.367365
0.36543
0.363593
0.361851
0.360197
0.358626
0.357134
0.355716
0.354368
0.353085
0.351865
0.350701
0.349595
0.348536
0.347532
0.373826
0.371555
0.369401
0.367359
0.365422
0.363583
0.361837
0.360178
0.3586
0.357101
0.355674
0.354317
0.353025
0.351795
0.350622
0.349506
0.34844
0.347427
0.373826
0.371553
0.369398
0.367355
0.365416
0.363575
0.361826
0.360164
0.358584
0.357081
0.355651
0.35429
0.352993
0.351758
0.35058
0.349458
0.348388
0.347368
0.373826
0.371552
0.369396
0.367351
0.36541
0.363567
0.361817
0.360153
0.358571
0.357067
0.355634
0.35427
0.352971
0.351734
0.350554
0.349429
0.348356
0.347333
0.373825
0.371551
0.369394
0.367348
0.365406
0.363562
0.36181
0.360145
0.358561
0.357055
0.355621
0.354256
0.352955
0.351716
0.350534
0.349408
0.348333
0.347308
0.373825
0.371551
0.369393
0.367346
0.365403
0.363558
0.361805
0.360139
0.358554
0.357047
0.355612
0.354245
0.352943
0.351703
0.35052
0.349392
0.348316
0.347289
0.373825
0.37155
0.369393
0.367345
0.365402
0.363557
0.361804
0.360137
0.358552
0.357043
0.355607
0.35424
0.352938
0.351696
0.350513
0.349384
0.348307
0.34728
0.373825
0.371551
0.369393
0.367347
0.365404
0.363559
0.361806
0.360139
0.358554
0.357046
0.355611
0.354244
0.352941
0.3517
0.350516
0.349388
0.348311
0.347284
0.373826
0.371551
0.369395
0.367349
0.365407
0.363563
0.361811
0.360145
0.358562
0.357055
0.355621
0.354255
0.352954
0.351715
0.350533
0.349406
0.348332
0.347306
0.373826
0.371552
0.369397
0.367352
0.365412
0.363571
0.361822
0.360161
0.358583
0.357083
0.355656
0.354298
0.353006
0.351774
0.350601
0.349482
0.348416
0.347397
0.373826
0.371554
0.369399
0.367359
0.365428
0.363602
0.361875
0.36024
0.35869
0.35722
0.355823
0.354493
0.353226
0.352018
0.350865
0.349762
0.34871
0.3477
0.373828
0.371551
0.369412
0.367417
0.365556
0.363819
0.362189
0.360651
0.359189
0.357793
0.356456
0.355171
0.353935
0.352745
0.3516
0.350495
0.349435
0.348409
0.373823
0.371554
0.369604
0.367893
0.366339
0.364892
0.363495
0.362122
0.360761
0.359413
0.35808
0.356769
0.355488
0.354237
0.353028
0.351855
0.350733
0.349644
0.373788
0.371991
0.371113
0.370266
0.36936
0.368311
0.367048
0.365629
0.36412
0.362575
0.36103
0.359522
0.358073
0.356682
0.355381
0.354141
0.353009
0.351923
0.374355
0.375572
0.377775
0.377857
0.377288
0.375886
0.373835
0.371641
0.369505
0.367482
0.365664
0.364084
0.36271
0.361535
0.36061
0.359818
0.359289
0.358801
0.379125
0.394296
0.398249
0.396573
0.392538
0.387603
0.383646
0.380448
0.378268
0.376853
0.376498
0.376742
0.377416
0.378692
0.380443
0.382425
0.38483
0.387141
0.408394
0.427541
0.422416
0.411056
0.402227
0.397925
0.398628
0.400965
0.406073
0.413059
0.421005
0.429835
0.438844
0.4482
0.457318
0.466564
0.475335
0.484196
0.36605
0.353416
0.341988
0.33021
0.318982
0.308382
0.299411
0.291671
0.285404
0.280334
0.276682
0.273868
0.272313
0.271176
0.271213
0.271475
0.272192
0.273393
0.00053595
0.00314828
0.00588465
0.00829159
0.0105601
0.0131086
0.0160517
0.019562
0.023737
0.0285781
0.0339921
0.0398606
0.046049
0.0524508
0.0589628
0.0655124
0.0720221
0.0784368
0.084692
0.0907365
0.0965092
0.101947
0.106991
0.111557
0.115587
0.118982
0.121697
0.123653
0.124868
0.125251
0.12489
0.123677
0.122628
0.121845
0.126801
0.131319
0.135695
0.139351
0.140934
0.140726
0.135044
0.144883
0.149618
0.158469
0.164647
0.172912
0.180337
0.188506
0.196552
0.20492
0.213371
0.222026
0.230819
0.239783
0.248899
0.258177
0.267609
0.277199
0.286943
0.29684
0.306888
0.317085
0.327427
0.337911
0.348533
0.359291
0.370176
0.381185
0.392312
0.403551
0.414894
0.426336
0.437866
0.449479
0.461163
0.472913
0.484716
0.496565
0.508447
0.520354
0.532272
0.544194
0.556104
0.567994
0.579846
0.591653
0.603397
0.615067
0.626644
0.638116
0.649462
0.660662
0.671694
0.682535
0.693163
0.703559
0.713717
0.723664
0.733489
0.743037
0.752378
0.761474
0.770329
0.778925
0.787256
0.79531
0.803076
0.810546
0.81771
0.824561
0.831087
0.837284
0.84314
0.848653
0.853811
0.858613
0.863049
0.867118
0.870813
0.874133
0.877072
0.879627
0.881794
0.883574
0.884962
0.885962
0.886568
0.886775
0.886641
0.886158
0.885222
0.883867
0.8821
0.880043
0.87767
0.874862
0.871727
0.868235
0.864405
0.860243
0.855759
0.850964
0.84587
0.840478
0.834802
0.828849
0.822632
0.816162
0.80945
0.802508
0.795349
0.787984
0.780425
0.772686
0.764779
0.756716
0.748511
0.740176
0.731727
0.723182
0.714568
0.705947
0.697681
0.692005
0.688102
0.684322
0.680511
0.676657
0.672764
0.668837
0.664879
0.66089
0.656865
0.652788
0.648621
0.644288
0.639629
0.634204
0.627126
0.601186
0.00276188
0.0115634
0.0175832
0.0220444
0.0259544
0.0297484
0.0337817
0.0382652
0.0432917
0.0488596
0.0549023
0.061328
0.0680354
0.0749361
0.0819508
0.0890166
0.0960757
0.103081
0.109987
0.116752
0.123332
0.129681
0.135753
0.141492
0.146849
0.151758
0.156181
0.160072
0.163477
0.166514
0.16956
0.173312
0.179094
0.188131
0.196677
0.205477
0.214094
0.223965
0.233852
0.244433
0.255745
0.269755
0.283372
0.295545
0.307568
0.320441
0.333591
0.347137
0.360986
0.375171
0.389667
0.404484
0.419614
0.435061
0.450823
0.466903
0.483301
0.500017
0.517052
0.534406
0.552078
0.570068
0.588372
0.606989
0.625915
0.645146
0.664676
0.684501
0.704614
0.725006
0.745669
0.766595
0.787771
0.809189
0.830834
0.852695
0.874757
0.897005
0.919424
0.941998
0.964708
0.987537
1.01047
1.03348
1.05655
1.07965
1.10277
1.12589
1.14897
1.172
1.19494
1.21776
1.24043
1.26292
1.28518
1.30717
1.32882
1.35007
1.37084
1.39135
1.41153
1.43139
1.4509
1.47004
1.48878
1.5071
1.52499
1.54242
1.55938
1.57583
1.59177
1.60717
1.62202
1.6363
1.64999
1.66307
1.67554
1.68738
1.69857
1.7091
1.71897
1.72816
1.73666
1.74446
1.75156
1.75795
1.76363
1.7686
1.77286
1.77642
1.77925
1.78127
1.78244
1.78299
1.78301
1.78219
1.7807
1.7785
1.77561
1.77206
1.76783
1.76296
1.75745
1.75131
1.74456
1.73722
1.72931
1.72083
1.71182
1.70228
1.69225
1.68173
1.67076
1.65935
1.64752
1.6353
1.62272
1.60978
1.59652
1.58297
1.56915
1.55511
1.54098
1.52718
1.51357
1.49987
1.48604
1.47211
1.45809
1.44402
1.4299
1.41575
1.40157
1.38737
1.37312
1.35879
1.3442
1.32936
1.31288
1.27623
0.00592488
0.020016
0.0280722
0.0340263
0.0392765
0.0443655
0.0495962
0.0551491
0.0611107
0.0674939
0.0742598
0.0813444
0.0886749
0.0961845
0.103815
0.111519
0.119259
0.127003
0.134725
0.142405
0.150024
0.157565
0.165016
0.172369
0.17963
0.186815
0.193982
0.201226
0.208715
0.216671
0.2254
0.235193
0.246207
0.25819
0.270197
0.282482
0.295168
0.308554
0.322488
0.337069
0.35233
0.368264
0.384258
0.400349
0.416719
0.433533
0.450745
0.468358
0.486358
0.504745
0.523516
0.542672
0.562211
0.582134
0.602441
0.623132
0.644207
0.665667
0.687511
0.709736
0.732343
0.755327
0.778687
0.802418
0.826515
0.850972
0.875783
0.90094
0.926434
0.952256
0.978395
1.00484
1.03157
1.05859
1.08587
1.11339
1.14115
1.16911
1.19727
1.22561
1.25409
1.28271
1.31143
1.34023
1.36909
1.39798
1.42688
1.45575
1.48457
1.5133
1.54192
1.5704
1.59869
1.62678
1.65461
1.68217
1.70942
1.73634
1.76292
1.78913
1.81496
1.84037
1.86533
1.88981
1.91379
1.93723
1.96012
1.98241
2.00409
2.02512
2.04549
2.06516
2.08413
2.10235
2.11982
2.13651
2.1524
2.16748
2.18173
2.19513
2.20766
2.21933
2.2301
2.23998
2.24895
2.25701
2.26415
2.27038
2.27568
2.28007
2.28351
2.28599
2.28739
2.28795
2.28773
2.28654
2.28444
2.28144
2.27757
2.27283
2.26723
2.26081
2.25356
2.24551
2.23668
2.2271
2.21677
2.20573
2.194
2.18161
2.16857
2.15493
2.1407
2.12591
2.11059
2.09477
2.07848
2.06175
2.04461
2.0271
2.00924
1.9911
1.97278
1.95451
1.93624
1.91785
1.89932
1.88067
1.86192
1.84311
1.82426
1.8054
1.78655
1.76773
1.74896
1.73026
1.71158
1.69304
1.67337
1.64149
0.00959433
0.0280937
0.0380537
0.045295
0.0515889
0.0575921
0.0636408
0.0699262
0.0765453
0.0835275
0.0908542
0.098481
0.106353
0.114418
0.122631
0.130958
0.139372
0.147858
0.156407
0.165014
0.173683
0.182422
0.191247
0.200181
0.209261
0.218536
0.228082
0.237992
0.248388
0.259399
0.271154
0.283727
0.297098
0.311113
0.325532
0.340384
0.355746
0.371701
0.388245
0.405379
0.423065
0.441232
0.459763
0.478635
0.497874
0.517526
0.537602
0.558107
0.579044
0.600413
0.622217
0.644456
0.667132
0.690248
0.713802
0.737798
0.762235
0.787114
0.812434
0.838195
0.864394
0.89103
0.9181
0.945598
0.973521
1.00186
1.03061
1.05977
1.08931
1.11924
1.14954
1.1802
1.2112
1.24252
1.27416
1.30609
1.33829
1.37074
1.40342
1.43631
1.46938
1.50261
1.53597
1.56943
1.60296
1.63653
1.67012
1.70368
1.73719
1.77062
1.80392
1.83707
1.87003
1.90277
1.93525
1.96744
1.99931
2.03082
2.06195
2.09265
2.1229
2.15265
2.18188
2.21054
2.2386
2.26602
2.29278
2.31884
2.34416
2.36873
2.3925
2.41545
2.43755
2.45877
2.4791
2.49849
2.51695
2.53443
2.55093
2.56642
2.58089
2.59433
2.60671
2.61802
2.62827
2.63743
2.64551
2.65251
2.65841
2.66323
2.66693
2.6695
2.67084
2.6712
2.67055
2.66881
2.66599
2.66213
2.65723
2.65131
2.6444
2.6365
2.62765
2.61786
2.60716
2.59558
2.58313
2.56985
2.55577
2.54092
2.52532
2.50901
2.49202
2.47439
2.45615
2.43732
2.41796
2.39809
2.37774
2.35696
2.3358
2.31431
2.29258
2.27075
2.24883
2.22677
2.20455
2.18221
2.15977
2.13727
2.11476
2.09226
2.06982
2.04748
2.0253
2.00336
1.98171
1.96053
1.93874
1.90939
0.013319
0.0356937
0.0474171
0.0558479
0.0630707
0.0698419
0.0765428
0.0833884
0.0904961
0.0979169
0.105656
0.113689
0.121979
0.13049
0.139187
0.148046
0.157052
0.166199
0.175489
0.184932
0.194544
0.204347
0.214372
0.224654
0.235238
0.246175
0.257527
0.26936
0.281749
0.29476
0.308449
0.322832
0.337891
0.353565
0.369788
0.38655
0.403864
0.421751
0.440211
0.459231
0.478783
0.498832
0.519338
0.540286
0.561675
0.583521
0.605833
0.628619
0.651883
0.67563
0.699863
0.724587
0.749803
0.775516
0.801727
0.828439
0.855654
0.883372
0.911594
0.940321
0.969551
0.999283
1.02951
1.06024
1.09145
1.12316
1.15533
1.18798
1.22108
1.25463
1.28862
1.32303
1.35784
1.39303
1.4286
1.46451
1.50075
1.53729
1.57411
1.61118
1.64847
1.68596
1.72361
1.76139
1.79926
1.83721
1.87518
1.91314
1.95106
1.9889
2.02661
2.06417
2.10153
2.13865
2.17549
2.21202
2.24819
2.28396
2.31929
2.35414
2.38846
2.42221
2.45536
2.48786
2.51967
2.55075
2.58106
2.61056
2.63923
2.66701
2.69388
2.7198
2.74474
2.76868
2.79157
2.81341
2.83415
2.85378
2.87227
2.88961
2.90578
2.92075
2.93451
2.94706
2.95837
2.96845
2.97728
2.98487
2.99121
2.99631
3.00014
3.00266
3.00382
3.0039
3.00275
3.00037
2.99678
2.992
2.98604
2.97894
2.9707
2.96135
2.95092
2.93944
2.92693
2.91342
2.89894
2.88352
2.8672
2.85002
2.832
2.81319
2.79362
2.77333
2.75236
2.73075
2.70853
2.68575
2.66245
2.63867
2.61446
2.58989
2.56503
2.53998
2.51478
2.4894
2.46387
2.4382
2.41244
2.38664
2.36084
2.33509
2.30945
2.28399
2.25881
2.23403
2.20977
2.18625
2.16253
2.13377
0.0168931
0.0426295
0.0559425
0.0654612
0.0735234
0.0809701
0.088225
0.0955284
0.10302
0.110772
0.118814
0.127142
0.13574
0.144585
0.153655
0.162935
0.17242
0.182109
0.192014
0.202152
0.212546
0.223225
0.234226
0.245585
0.257345
0.269551
0.282249
0.295483
0.309298
0.32373
0.338805
0.354533
0.370904
0.387896
0.405485
0.423661
0.442419
0.46176
0.481678
0.502164
0.523203
0.544778
0.566875
0.589485
0.612604
0.636237
0.660391
0.685071
0.710284
0.736036
0.762332
0.789178
0.816578
0.844538
0.873061
0.90215
0.93181
0.962043
0.99285
1.02423
1.05619
1.08873
1.12183
1.15551
1.18976
1.22456
1.25992
1.29583
1.33226
1.36922
1.40669
1.44466
1.48309
1.52199
1.56132
1.60107
1.6412
1.6817
1.72253
1.76366
1.80507
1.84671
1.88856
1.93058
1.97273
2.01497
2.05726
2.09956
2.14183
2.18402
2.22609
2.268
2.30969
2.35113
2.39227
2.43306
2.47344
2.51338
2.55282
2.59171
2.63001
2.66767
2.70464
2.74088
2.77634
2.81097
2.84473
2.87757
2.90946
2.94036
2.97022
2.999
3.02668
3.05321
3.07857
3.10272
3.12564
3.1473
3.16768
3.18675
3.20449
3.22089
3.23593
3.24959
3.26186
3.27275
3.28223
3.29031
3.29699
3.30227
3.30614
3.30852
3.30946
3.30914
3.30743
3.30435
3.29993
3.29417
3.28712
3.27878
3.26918
3.25836
3.24634
3.23314
3.21882
3.20338
3.18688
3.16935
3.15083
3.13135
3.11096
3.0897
3.06761
3.04474
3.02111
2.99679
2.97182
2.94623
2.92008
2.89342
2.86629
2.83876
2.8109
2.78279
2.75448
2.72597
2.69729
2.66848
2.63959
2.61066
2.58176
2.55295
2.52431
2.49593
2.46793
2.44047
2.41374
2.38794
2.36222
2.33285
0.020182
0.0487726
0.0634746
0.0739568
0.0827634
0.0908038
0.0985365
0.106224
0.114025
0.122033
0.130296
0.138834
0.147647
0.156728
0.166068
0.17566
0.185508
0.195617
0.206004
0.216688
0.227698
0.239065
0.250823
0.263008
0.275658
0.288809
0.302497
0.316752
0.331602
0.347069
0.363168
0.379906
0.397281
0.415286
0.433911
0.453149
0.472996
0.493449
0.514503
0.536154
0.558394
0.581218
0.604619
0.628595
0.653144
0.678268
0.703973
0.730265
0.757152
0.784639
0.812735
0.841447
0.870781
0.900744
0.931342
0.962581
0.994465
1.027
1.06019
1.09403
1.12853
1.16369
1.19951
1.23598
1.27311
1.31088
1.3493
1.38834
1.428
1.46827
1.50914
1.55058
1.59257
1.63511
1.67815
1.72169
1.76568
1.8101
1.85492
1.9001
1.94561
1.99141
2.03747
2.08373
2.13015
2.1767
2.22332
2.26997
2.3166
2.36316
2.4096
2.45586
2.5019
2.54766
2.59309
2.63812
2.68272
2.7268
2.77034
2.81326
2.85552
2.89706
2.93782
2.97777
3.01684
3.05498
3.09215
3.12829
3.16336
3.19731
3.2301
3.26169
3.29204
3.32111
3.34886
3.37526
3.40029
3.4239
3.44609
3.46681
3.48605
3.50379
3.52002
3.53471
3.54786
3.55946
3.56951
3.578
3.58494
3.59031
3.59414
3.59632
3.59698
3.59617
3.59383
3.58999
3.58467
3.57789
3.56968
3.56006
3.54906
3.53673
3.52308
3.50815
3.49198
3.47461
3.45609
3.43644
3.41571
3.39395
3.3712
3.34752
3.32294
3.29751
3.27128
3.2443
3.21662
3.18829
3.15936
3.12988
3.0999
3.06949
3.03872
3.00765
2.97633
2.94481
2.91311
2.88127
2.84936
2.81744
2.78556
2.75381
2.72229
2.69109
2.66038
2.63034
2.60116
2.57305
2.54521
2.51439
0.0230895
0.0540411
0.0699153
0.0812192
0.0906639
0.0992129
0.107352
0.115359
0.12341
0.131614
0.140038
0.148719
0.157673
0.16691
0.17643
0.186239
0.196345
0.206759
0.217501
0.228593
0.240062
0.251939
0.264257
0.277047
0.290342
0.304172
0.318564
0.333543
0.349127
0.365334
0.382173
0.399651
0.417771
0.436533
0.455934
0.475972
0.496646
0.517955
0.539898
0.562474
0.585684
0.609526
0.634001
0.65911
0.684854
0.711237
0.738267
0.765949
0.794294
0.823309
0.853003
0.883387
0.914467
0.946254
0.978756
1.01198
1.04593
1.08062
1.11605
1.15223
1.18915
1.22683
1.26525
1.30443
1.34435
1.38502
1.42642
1.46854
1.51138
1.55493
1.59915
1.64405
1.68958
1.73574
1.7825
1.82982
1.87768
1.92604
1.97487
2.02412
2.07376
2.12374
2.17402
2.22455
2.27528
2.32617
2.37715
2.42818
2.47919
2.53014
2.58097
2.6316
2.682
2.73208
2.7818
2.83108
2.87987
2.9281
2.97572
3.02265
3.06884
3.11424
3.15877
3.20239
3.24503
3.28664
3.32716
3.36654
3.40474
3.44169
3.47735
3.51167
3.54462
3.57615
3.60621
3.63479
3.66184
3.68732
3.71122
3.73351
3.75417
3.77316
3.79048
3.80612
3.82006
3.83229
3.84281
3.85163
3.85873
3.86413
3.86783
3.86974
3.87003
3.86866
3.86563
3.86096
3.85468
3.84681
3.83739
3.82644
3.81401
3.80012
3.78481
3.76812
3.7501
3.73078
3.71021
3.68844
3.66551
3.64148
3.6164
3.59031
3.56326
3.53532
3.50653
3.47694
3.44661
3.41559
3.38394
3.35171
3.31895
3.28573
3.25212
3.21818
3.18397
3.14953
3.11491
3.08017
3.04535
3.01053
2.97578
2.9412
2.90688
2.87297
2.83961
2.80702
2.77541
2.74495
2.71488
2.68247
0.0255568
0.0584023
0.0752251
0.087199
0.0971667
0.106134
0.114604
0.12287
0.131117
0.139467
0.148001
0.156771
0.165809
0.175135
0.184763
0.194705
0.204977
0.215593
0.226575
0.237946
0.249732
0.261961
0.274663
0.287867
0.3016
0.315888
0.330755
0.346219
0.362299
0.379007
0.396354
0.414348
0.432996
0.4523
0.472264
0.492891
0.514182
0.536142
0.558773
0.582079
0.606065
0.630734
0.656092
0.682144
0.708895
0.736353
0.764526
0.793423
0.823056
0.853436
0.884573
0.916479
0.949166
0.982644
1.01692
1.05202
1.08793
1.12467
1.16226
1.20068
1.23995
1.28008
1.32106
1.36289
1.40557
1.44909
1.49346
1.53865
1.58466
1.63147
1.67906
1.72741
1.7765
1.82631
1.87679
1.92792
1.97967
2.032
2.08486
2.1382
2.192
2.24619
2.30072
2.35554
2.4106
2.46584
2.52119
2.5766
2.63201
2.68734
2.74254
2.79753
2.85226
2.90664
2.96062
3.01411
3.06706
3.11938
3.17102
3.22191
3.27197
3.32114
3.36937
3.41657
3.4627
3.50769
3.55148
3.594
3.63522
3.67506
3.71348
3.75043
3.78586
3.81974
3.85201
3.88263
3.91159
3.93883
3.96433
3.98806
4.01001
4.03014
4.04845
4.06491
4.07953
4.09228
4.10317
4.1122
4.11937
4.1247
4.12817
4.12975
4.12956
4.12757
4.12377
4.1182
4.1109
4.1019
4.09122
4.0789
4.06498
4.04951
4.03252
4.01405
3.99416
3.97289
3.95029
3.92641
3.90131
3.87503
3.84764
3.81918
3.78972
3.75932
3.72802
3.69588
3.66297
3.62934
3.59505
3.56015
3.5247
3.48877
3.45242
3.41572
3.37872
3.34149
3.30407
3.26652
3.22891
3.19131
3.1538
3.11649
3.07949
3.04295
3.00702
2.97194
2.9379
2.90505
2.8727
2.83855
0.0275519
0.0618607
0.0794147
0.0919054
0.102277
0.111568
0.120294
0.128756
0.137145
0.145594
0.154194
0.163007
0.172079
0.18144
0.191112
0.201116
0.211471
0.222197
0.233316
0.244852
0.256829
0.269273
0.282211
0.295668
0.309669
0.324235
0.339389
0.355148
0.371528
0.388544
0.406208
0.424531
0.443522
0.463188
0.483537
0.504576
0.526313
0.548754
0.571908
0.595782
0.620386
0.645727
0.671816
0.698661
0.726273
0.754661
0.783839
0.813819
0.844615
0.876239
0.908708
0.942034
0.976231
1.01131
1.04729
1.08419
1.122
1.16074
1.20043
1.24107
1.28266
1.32522
1.36873
1.41321
1.45865
1.50504
1.55238
1.60065
1.64985
1.69994
1.75093
1.80277
1.85544
1.90891
1.96316
2.01813
2.07379
2.1301
2.18701
2.24447
2.30243
2.36083
2.41961
2.47872
2.53808
2.59765
2.65734
2.71709
2.77684
2.8365
2.896
2.95528
3.01426
3.07285
3.13098
3.18858
3.24557
3.30187
3.35741
3.41211
3.4659
3.51872
3.57048
3.62112
3.67058
3.71878
3.76566
3.81116
3.85522
3.89779
3.93879
3.97819
4.01594
4.05198
4.08627
4.11878
4.14946
4.17829
4.20522
4.23024
4.25332
4.27443
4.29357
4.31072
4.32586
4.339
4.35013
4.35925
4.36637
4.3715
4.37464
4.3758
4.37505
4.37233
4.36769
4.36116
4.35278
4.34258
4.3306
4.31688
4.30146
4.28438
4.2657
4.24546
4.22371
4.20051
4.1759
4.14995
4.1227
4.09423
4.06459
4.03384
4.00204
3.96925
3.93553
3.90094
3.86555
3.82941
3.79259
3.75513
3.71711
3.67859
3.63963
3.6003
3.56066
3.52077
3.48068
3.44048
3.40021
3.35997
3.31985
3.27994
3.24037
3.2013
3.1629
3.12538
3.08894
3.05373
3.01906
2.98299
0.0290699
0.0644536
0.0825341
0.0953947
0.106054
0.115575
0.124479
0.133071
0.141548
0.150049
0.158672
0.167487
0.176548
0.185894
0.195559
0.205566
0.215939
0.2267
0.237872
0.249475
0.261535
0.274076
0.28712
0.300692
0.314815
0.329508
0.344794
0.360689
0.377212
0.394379
0.412204
0.430703
0.449887
0.469769
0.49036
0.511673
0.533719
0.55651
0.580058
0.604377
0.629478
0.655374
0.682081
0.709612
0.737983
0.767207
0.7973
0.828279
0.860162
0.892964
0.926705
0.961401
0.997068
1.03372
1.07138
1.11005
1.14976
1.19051
1.23231
1.27518
1.31911
1.36412
1.41021
1.45738
1.50561
1.55492
1.60528
1.65668
1.70911
1.76254
1.81696
1.87233
1.92862
1.9858
2.04383
2.10266
2.16225
2.22254
2.2835
2.34505
2.40714
2.46971
2.53269
2.59602
2.65962
2.72342
2.78735
2.85133
2.91528
2.97913
3.0428
3.1062
3.16924
3.23186
3.29396
3.35546
3.41628
3.47634
3.53555
3.59383
3.65112
3.70732
3.76238
3.8162
3.86873
3.91988
3.9696
4.01781
4.06446
4.10947
4.15281
4.1944
4.23419
4.27215
4.30822
4.34236
4.37454
4.40471
4.43285
4.45893
4.48293
4.50482
4.52459
4.54222
4.55771
4.57106
4.58226
4.59132
4.59825
4.60305
4.60576
4.60637
4.60497
4.60144
4.59587
4.58831
4.57879
4.56735
4.55404
4.53889
4.52195
4.50328
4.48292
4.46093
4.43735
4.41225
4.38569
4.35773
4.32843
4.29784
4.26604
4.23309
4.19906
4.164
4.12799
4.09108
4.05334
4.01484
3.97563
3.93578
3.89534
3.85439
3.81298
3.77119
3.72907
3.68671
3.64414
3.60145
3.55871
3.516
3.47342
3.43107
3.38909
3.34762
3.30686
3.267
3.22824
3.19071
3.15376
3.11573
0.0301298
0.0662477
0.0846642
0.0977581
0.108595
0.118253
0.127257
0.135914
0.144424
0.152929
0.161533
0.170314
0.179331
0.188628
0.198242
0.208201
0.218531
0.229256
0.240398
0.251981
0.264027
0.276559
0.289599
0.303171
0.317296
0.331996
0.347291
0.363199
0.379741
0.396937
0.414805
0.433363
0.45263
0.472621
0.493353
0.514842
0.537105
0.560161
0.584026
0.608715
0.634245
0.660633
0.6879
0.716066
0.745151
0.775173
0.806154
0.838114
0.871075
0.905057
0.940082
0.976169
1.01334
1.0516
1.09099
1.1315
1.17317
1.21599
1.25999
1.30516
1.35153
1.39909
1.44784
1.49779
1.54892
1.60122
1.65469
1.70931
1.76505
1.82189
1.8798
1.93875
1.99869
2.0596
2.12142
2.1841
2.2476
2.31184
2.37678
2.44236
2.50849
2.57512
2.64217
2.70957
2.77723
2.84509
2.91305
2.98104
3.04897
3.11676
3.18431
3.25155
3.31838
3.38471
3.45046
3.51553
3.57984
3.6433
3.70583
3.76734
3.82774
3.88697
3.94494
4.00157
4.05678
4.11051
4.16269
4.21323
4.26209
4.3092
4.35449
4.39791
4.43941
4.47894
4.51645
4.5519
4.58525
4.61646
4.64551
4.67237
4.69701
4.71941
4.73956
4.75745
4.77307
4.78642
4.7975
4.80631
4.81288
4.81721
4.81933
4.81928
4.81713
4.81268
4.80611
4.79745
4.78675
4.77404
4.75937
4.74279
4.72435
4.7041
4.68209
4.6584
4.63306
4.60615
4.57772
4.54785
4.51659
4.48402
4.45019
4.41519
4.37907
4.34191
4.30376
4.26471
4.22481
4.18412
4.14272
4.10067
4.05802
4.01484
3.9712
3.92716
3.8828
3.83817
3.79334
3.74839
3.70338
3.65841
3.61357
3.56898
3.52477
3.48109
3.43812
3.39606
3.35509
3.31534
3.27621
3.23628
0.0307737
0.0673226
0.0859039
0.0991066
0.110019
0.119726
0.128754
0.137413
0.145906
0.154377
0.16293
0.171645
0.18058
0.189785
0.199301
0.209159
0.219389
0.230014
0.241059
0.252545
0.264496
0.276934
0.289882
0.303363
0.3174
0.332018
0.347242
0.363087
0.379575
0.396727
0.414566
0.433115
0.452395
0.47243
0.493241
0.514854
0.537304
0.560605
0.584776
0.609837
0.635806
0.662693
0.690533
0.719355
0.749187
0.780054
0.811982
0.844997
0.879123
0.914384
0.950804
0.988404
1.02721
1.06723
1.10849
1.151
1.19478
1.23985
1.28621
1.33388
1.38284
1.43312
1.48471
1.53759
1.59177
1.64722
1.70392
1.76187
1.82102
1.88134
1.94281
2.00537
2.069
2.13362
2.1992
2.26568
2.333
2.40109
2.46988
2.5393
2.60929
2.67976
2.75063
2.82183
2.89326
2.96485
3.03651
3.10814
3.17966
3.25097
3.32199
3.39262
3.46278
3.53235
3.60126
3.66941
3.73671
3.80307
3.8684
3.93261
3.99561
4.05734
4.11769
4.1766
4.23399
4.28978
4.34389
4.39627
4.44684
4.49555
4.54232
4.5871
4.62985
4.6705
4.70902
4.74536
4.77948
4.81135
4.84094
4.86822
4.89317
4.91576
4.936
4.95386
4.96934
4.98245
4.99318
5.00154
5.00756
5.01125
5.01264
5.01184
5.00876
5.00332
4.99567
4.98587
4.97394
4.95995
4.94392
4.92593
4.90602
4.88424
4.86067
4.83535
4.80835
4.77974
4.74957
4.71793
4.68488
4.65048
4.61481
4.57794
4.53994
4.50088
4.46082
4.41985
4.37801
4.33539
4.29204
4.24803
4.20342
4.15828
4.11267
4.06665
4.0203
3.97368
3.92685
3.8799
3.83289
3.78592
3.73908
3.69248
3.64626
3.60058
3.5556
3.51152
3.4685
3.42669
3.38552
3.34383
0.0309825
0.0677065
0.0863235
0.0995354
0.110437
0.120121
0.129113
0.137723
0.146152
0.154544
0.163008
0.171631
0.180476
0.189587
0.199003
0.208757
0.218877
0.22939
0.240318
0.251685
0.263514
0.275828
0.288651
0.302005
0.315916
0.330407
0.345502
0.361225
0.377603
0.394667
0.412445
0.430967
0.450259
0.470352
0.491272
0.513048
0.535703
0.55927
0.583773
0.609239
0.635698
0.663167
0.691691
0.721308
0.752045
0.783932
0.817
0.851278
0.886797
0.923582
0.961655
1.00104
1.04175
1.08382
1.12725
1.17206
1.21826
1.26587
1.31489
1.36533
1.41718
1.47045
1.52511
1.58117
1.6386
1.69738
1.75749
1.81889
1.88155
1.94543
2.01048
2.07666
2.14391
2.21217
2.2814
2.35151
2.42244
2.49413
2.56649
2.63946
2.71294
2.78686
2.86113
2.93567
3.01039
3.0852
3.16
3.2347
3.30921
3.38344
3.4573
3.53067
3.60348
3.67563
3.74701
3.81754
3.88713
3.95568
4.0231
4.0893
4.1542
4.21771
4.27976
4.34026
4.39913
4.45631
4.51171
4.56527
4.61692
4.6666
4.71424
4.75981
4.80323
4.84446
4.88346
4.92018
4.95459
4.98665
5.01634
5.04362
5.06848
5.0909
5.11087
5.12838
5.14342
5.15601
5.16614
5.17383
5.17909
5.18196
5.18247
5.18081
5.17667
5.17015
5.16138
5.15039
5.13723
5.12195
5.1046
5.08525
5.06393
5.04072
5.01568
4.98887
4.96035
4.9302
4.89848
4.86526
4.83062
4.79462
4.75734
4.71885
4.67922
4.63852
4.59683
4.55422
4.51074
4.46648
4.42149
4.37583
4.32958
4.28278
4.23552
4.18784
4.13982
4.09153
4.04303
3.99439
3.9457
3.89703
3.84848
3.80017
3.75222
3.7048
3.65806
3.61219
3.56734
3.52367
3.48066
3.43742
0.0309195
0.0676289
0.0861818
0.0993395
0.110185
0.119806
0.128726
0.137253
0.145591
0.153885
0.16224
0.170738
0.179439
0.188393
0.19764
0.207216
0.217152
0.227475
0.238211
0.249383
0.261016
0.273135
0.285766
0.298936
0.312671
0.327002
0.341959
0.357577
0.373888
0.390926
0.408726
0.427322
0.446748
0.467035
0.488218
0.51033
0.533409
0.5575
0.582623
0.608803
0.636057
0.664426
0.69397
0.724722
0.756724
0.79001
0.824617
0.860581
0.897944
0.93672
0.976929
1.01859
1.06172
1.10633
1.15243
1.20003
1.24914
1.29976
1.35189
1.40553
1.46066
1.51727
1.57535
1.63487
1.69579
1.7581
1.82175
1.8867
1.9529
2.02031
2.08887
2.15853
2.22922
2.30087
2.37343
2.44682
2.52096
2.59578
2.6712
2.74714
2.82351
2.90022
2.9772
3.05436
3.13159
3.20882
3.28594
3.36287
3.43951
3.51577
3.59155
3.66675
3.74129
3.81507
3.88799
3.95996
4.03089
4.10069
4.16927
4.23654
4.30242
4.36682
4.42967
4.49088
4.55039
4.60811
4.66397
4.71791
4.76986
4.81977
4.86756
4.9132
4.95662
4.99778
5.03663
5.07314
5.10727
5.13899
5.16827
5.19508
5.21941
5.24123
5.26055
5.27735
5.29164
5.30341
5.31268
5.31945
5.32376
5.32562
5.32518
5.32248
5.31718
5.30953
5.29959
5.28741
5.27304
5.25653
5.23792
5.21729
5.1947
5.17019
5.14384
5.11572
5.08588
5.05441
5.02136
4.98682
4.95086
4.91354
4.87494
4.83514
4.79421
4.75221
4.70923
4.66532
4.62057
4.57502
4.52875
4.48183
4.4343
4.38623
4.33769
4.28874
4.23944
4.18986
4.14006
4.09011
4.0401
3.99009
3.94019
3.8905
3.84116
3.79231
3.74411
3.69673
3.65033
3.60505
3.56045
3.51592
0.030714
0.0672963
0.0856649
0.0986665
0.109357
0.118817
0.127571
0.135927
0.144089
0.1522
0.160367
0.16867
0.177173
0.185929
0.194983
0.204367
0.214111
0.224242
0.234789
0.245779
0.257239
0.2692
0.281694
0.294752
0.308409
0.322702
0.337667
0.353341
0.369765
0.386979
0.40503
0.423968
0.443835
0.464664
0.486493
0.509359
0.533288
0.558281
0.584411
0.611749
0.640361
0.670301
0.7016
0.73429
0.768407
0.803984
0.841052
0.879632
0.919738
0.961401
1.00465
1.0495
1.09595
1.144
1.19363
1.24485
1.29766
1.35203
1.40796
1.46543
1.5244
1.58485
1.64674
1.71004
1.77471
1.8407
1.90796
1.97644
2.04608
2.11682
2.18861
2.26138
2.33506
2.40957
2.48486
2.56084
2.63744
2.71458
2.79219
2.87017
2.94845
3.02694
3.10556
3.18422
3.26283
3.34131
3.41957
3.49751
3.57504
3.65208
3.72854
3.80432
3.87933
3.95349
4.02669
4.09886
4.16991
4.23974
4.30828
4.37543
4.44112
4.50527
4.5678
4.62863
4.6877
4.74493
4.80024
4.85359
4.90489
4.9541
5.00116
5.04602
5.08863
5.12894
5.16692
5.20251
5.23569
5.26643
5.29471
5.32049
5.34377
5.36452
5.38274
5.39842
5.41158
5.4222
5.4303
5.43589
5.439
5.43968
5.4382
5.43421
5.42769
5.41885
5.40772
5.39435
5.37879
5.3611
5.34132
5.31953
5.29579
5.27015
5.24268
5.21345
5.18253
5.14998
5.11589
5.08031
5.04333
5.00502
4.96544
4.92468
4.8828
4.83988
4.79599
4.75118
4.70554
4.65912
4.61199
4.5642
4.51582
4.4669
4.41751
4.3677
4.31753
4.26708
4.21639
4.16554
4.1146
4.06365
4.01278
3.96209
3.91171
3.86178
3.81244
3.76387
3.7162
3.66962
3.62368
3.57818
0.0302996
0.0666032
0.084682
0.0974496
0.107917
0.117159
0.125699
0.133847
0.141805
0.149717
0.157691
0.165805
0.174126
0.182704
0.191585
0.200805
0.210399
0.2204
0.230839
0.241748
0.253165
0.265127
0.277672
0.29084
0.304676
0.319233
0.334568
0.350717
0.367725
0.38564
0.404502
0.424328
0.445152
0.46707
0.490151
0.514455
0.540047
0.567008
0.595376
0.625197