/*--------------------------------*- C++ -*----------------------------------*\
  =========                 |
  \\      /  F ield         | OpenFOAM: The Open Source CFD Toolbox
   \\    /   O peration     | Website:  https://openfoam.org
    \\  /    A nd           | Version:  8
     \\/     M anipulation  |
\*---------------------------------------------------------------------------*/
/*   Windows 32 and 64 bit porting by blueCAPE: http://www.bluecape.com.pt   *\
|  Based on Windows porting (2.0.x v4) by Symscape: http://www.symscape.com   |
\*---------------------------------------------------------------------------*/
FoamFile
{
    version     2.0;
    format      ascii;
    class       volScalarField;
    location    "288";
    object      nut;
}
// * * * * * * * * * * * * * * * * * * * * * * * * * * * * * * * * * * * * * //

dimensions      [0 2 -1 0 0 0 0];

internalField   nonuniform List<scalar> 
12225
(
4.14928e-05
3.93401e-05
3.74838e-05
3.54318e-05
3.37853e-05
3.24192e-05
3.15114e-05
3.09109e-05
3.09182e-05
3.10899e-05
3.15773e-05
3.20852e-05
3.31743e-05
3.37803e-05
3.51442e-05
3.56659e-05
3.75473e-05
3.96992e-05
0.00033221
0.000215179
0.00017927
0.000157678
0.000146211
0.000138209
0.000132761
0.000131631
0.000129529
0.000130043
0.000129066
0.000129418
0.000128681
0.00012853
0.000128111
0.000127365
0.000127465
0.000126269
0.000668674
0.000450658
0.00035576
0.00030983
0.000275291
0.000251093
0.000231724
0.000217267
0.000202703
0.000192112
0.000182643
0.000175208
0.000169393
0.000163696
0.000160317
0.000155592
0.000153852
0.000149854
0.000801678
0.000691654
0.000572565
0.000500047
0.000449396
0.000411972
0.000380801
0.000355992
0.000334032
0.000314777
0.000298404
0.000281637
0.000270367
0.000256099
0.000248257
0.000236178
0.000230626
0.000220455
0.000839622
0.000810182
0.000740718
0.0006764
0.000623948
0.000581372
0.00054589
0.000514551
0.000489538
0.000464434
0.000445891
0.000424083
0.000409969
0.000390843
0.000379958
0.00036309
0.000354911
0.000339474
0.000850344
0.000843275
0.000819555
0.00078652
0.000750786
0.000715876
0.00068577
0.000656131
0.000632561
0.000607528
0.000589016
0.00056727
0.000552312
0.000533139
0.000520851
0.00050373
0.000493792
0.000477442
0.000851579
0.000851018
0.0008433
0.000833474
0.000817118
0.000796948
0.000777877
0.000756738
0.000738907
0.000719157
0.000703546
0.000685642
0.000672147
0.000655958
0.000644366
0.000629528
0.000619951
0.000605104
0.000851582
0.000851815
0.000850039
0.00084746
0.000841403
0.000833751
0.000824825
0.000813436
0.000802815
0.000790478
0.000779724
0.000767554
0.000757444
0.000745807
0.000736588
0.00072551
0.000717554
0.000705961
0.000851673
0.00085153
0.000851016
0.000850343
0.000848875
0.000846171
0.000843027
0.000838306
0.000833405
0.000827365
0.000821223
0.000814777
0.000808443
0.00080152
0.000795318
0.000788353
0.000782562
0.000775004
0.000851754
0.000851386
0.000851043
0.000850633
0.000850247
0.000849368
0.000848405
0.000846781
0.000844957
0.000842532
0.000839926
0.000836803
0.000833802
0.000830159
0.000826987
0.000822934
0.000819945
0.000815316
0.000851784
0.000851358
0.000851012
0.000850613
0.000850329
0.000849905
0.000849526
0.000848929
0.000848303
0.000847394
0.000846467
0.000845179
0.000843993
0.000842356
0.000841002
0.000839039
0.00083765
0.000835374
0.000851788
0.000851359
0.000850995
0.000850605
0.000850292
0.000849938
0.000849646
0.00084928
0.000848955
0.000848505
0.000848099
0.000847509
0.000846999
0.000846246
0.000845644
0.000844724
0.000844062
0.000842981
0.000851786
0.000851363
0.000850985
0.000850604
0.000850269
0.000849926
0.00084963
0.000849313
0.000849042
0.000848729
0.000848462
0.000848127
0.000847844
0.000847467
0.000847157
0.000846727
0.000846388
0.000845904
0.000851783
0.000851364
0.000850978
0.000850602
0.000850256
0.000849916
0.000849607
0.0008493
0.000849022
0.000848741
0.000848488
0.000848224
0.000847989
0.000847735
0.000847508
0.000847258
0.000847033
0.000846783
0.000851781
0.000851364
0.000850972
0.000850598
0.000850246
0.000849908
0.000849591
0.000849286
0.000849
0.000848723
0.000848463
0.000848211
0.000847975
0.000847745
0.000847527
0.000847316
0.000847114
0.000846918
0.00085178
0.000851363
0.000850969
0.000850594
0.000850239
0.000849901
0.00084958
0.000849274
0.000848984
0.000848707
0.000848443
0.000848191
0.000847951
0.000847721
0.000847502
0.000847292
0.000847092
0.0008469
0.000851779
0.000851362
0.000850967
0.000850591
0.000850234
0.000849894
0.000849572
0.000849265
0.000848973
0.000848694
0.000848428
0.000848174
0.000847932
0.000847701
0.00084748
0.000847268
0.000847066
0.000846873
0.000851779
0.000851362
0.000850965
0.000850588
0.00085023
0.00084989
0.000849567
0.000849258
0.000848965
0.000848685
0.000848418
0.000848163
0.000847919
0.000847686
0.000847464
0.000847251
0.000847047
0.000846853
0.000851779
0.000851362
0.000850965
0.000850588
0.000850229
0.000849889
0.000849565
0.000849256
0.000848962
0.000848681
0.000848413
0.000848157
0.000847913
0.000847679
0.000847456
0.000847242
0.000847037
0.000846842
0.000851779
0.000851362
0.000850965
0.000850589
0.000850231
0.000849891
0.000849567
0.000849259
0.000848965
0.000848684
0.000848416
0.000848161
0.000847916
0.000847683
0.000847459
0.000847245
0.000847039
0.000846843
0.000851779
0.000851363
0.000850967
0.000850592
0.000850235
0.000849896
0.000849573
0.000849266
0.000848972
0.000848693
0.000848423
0.000848168
0.000847918
0.000847682
0.00084745
0.00084723
0.000847011
0.000846805
0.000851778
0.000851366
0.000850968
0.000850599
0.00085024
0.000849907
0.00084958
0.000849274
0.000848964
0.000848671
0.000848364
0.000848071
0.000847755
0.000847454
0.000847122
0.00084681
0.000846455
0.000846134
0.000851773
0.000851376
0.000850971
0.000850615
0.00085024
0.000849889
0.000849478
0.000849053
0.000848529
0.000847977
0.0008473
0.000846603
0.000845765
0.000844937
0.000843953
0.000843027
0.000841915
0.000840937
0.000851768
0.000851415
0.000850964
0.000850548
0.000849861
0.000848966
0.00084761
0.000845975
0.000843904
0.000841635
0.000838953
0.000836212
0.000833114
0.00083011
0.000826759
0.000823675
0.000820179
0.000817172
0.000851859
0.00085138
0.000850195
0.000848243
0.000844469
0.000839353
0.000832764
0.000825657
0.000817959
0.000810008
0.000801614
0.000793623
0.000785326
0.0007777
0.000769736
0.000762692
0.000755114
0.000748785
0.000852108
0.000847667
0.000839902
0.000827146
0.000808707
0.000789644
0.000769973
0.00075141
0.000733301
0.00071689
0.000700928
0.000686773
0.000672821
0.000660661
0.000648368
0.000637929
0.000626941
0.000618007
0.000843241
0.000822506
0.000775184
0.000726457
0.000684894
0.000649849
0.000618458
0.000592015
0.000568376
0.000548305
0.000529681
0.000513983
0.000498742
0.000486006
0.00047319
0.000462696
0.00045161
0.000442792
0.000795685
0.000668241
0.000570625
0.000509903
0.000465603
0.00043118
0.000404143
0.000382477
0.000364195
0.000349064
0.000335936
0.000325056
0.0003145
0.000306229
0.000297952
0.000291359
0.000284272
0.000278922
0.000501314
0.000348357
0.000292673
0.00025918
0.000236321
0.000221176
0.000211619
0.000203853
0.000198563
0.000195074
0.00019222
0.000190366
0.000188581
0.000187437
0.000186165
0.000185471
0.000184554
0.000184142
7.27385e-05
7.02256e-05
6.79542e-05
6.56138e-05
6.33828e-05
6.12762e-05
5.94944e-05
5.79552e-05
5.67109e-05
5.57033e-05
5.49777e-05
5.44183e-05
5.41098e-05
5.38815e-05
5.38981e-05
5.39333e-05
5.4092e-05
5.43248e-05
1.67392e-07
4.48721e-06
8.3695e-06
1.17796e-05
1.49789e-05
1.85761e-05
2.27219e-05
2.76739e-05
3.35601e-05
4.04008e-05
4.80482e-05
5.63515e-05
6.50977e-05
7.41536e-05
8.33473e-05
9.25934e-05
0.000101754
0.000110763
0.000119499
0.000127889
0.000135813
0.000143151
0.00014979
0.000155546
0.000160324
0.000163908
0.000166298
0.000167375
0.000167386
0.000166216
0.000164362
0.000162369
0.000163683
0.000170478
0.000178863
0.0001855
0.000191703
0.000195563
0.000196448
0.000190584
4.05395e-05
4.62068e-05
4.82775e-05
4.91038e-05
5.02142e-05
5.13782e-05
5.24627e-05
5.36019e-05
5.47025e-05
5.58218e-05
5.6926e-05
5.80337e-05
5.91344e-05
6.02339e-05
6.13288e-05
6.24212e-05
6.35096e-05
6.4595e-05
6.56766e-05
6.67548e-05
6.78289e-05
6.88993e-05
6.99652e-05
7.10269e-05
7.20836e-05
7.31353e-05
7.41815e-05
7.52218e-05
7.62558e-05
7.72831e-05
7.83032e-05
7.93157e-05
8.03199e-05
8.13155e-05
8.23018e-05
8.32785e-05
8.42448e-05
8.52003e-05
8.61444e-05
8.70765e-05
8.7996e-05
8.89025e-05
8.97952e-05
9.06737e-05
9.15372e-05
9.23852e-05
9.32169e-05
9.40319e-05
9.48293e-05
9.56084e-05
9.63681e-05
9.71076e-05
9.78256e-05
9.85211e-05
9.91929e-05
9.98402e-05
0.000100463
0.000101064
0.00010165
0.00010221
0.000102749
0.000103266
0.000103761
0.000104233
0.000104682
0.000105108
0.00010551
0.000105889
0.000106244
0.000106574
0.00010688
0.000107161
0.000107418
0.000107649
0.000107855
0.000108037
0.000108192
0.000108323
0.000108428
0.000108508
0.000108563
0.000108592
0.000108596
0.000108574
0.000108527
0.000108455
0.000108358
0.000108236
0.000108091
0.000107925
0.00010773
0.000107509
0.000107262
0.000106996
0.000106709
0.000106395
0.000106061
0.000105704
0.000105326
0.000104927
0.000104507
0.000104068
0.00010361
0.000103132
0.000102636
0.000102122
0.000101591
0.000101042
0.000100478
9.98974e-05
9.93019e-05
9.86919e-05
9.80681e-05
9.74311e-05
9.67815e-05
9.61201e-05
9.54475e-05
9.47644e-05
9.40715e-05
9.33699e-05
9.26611e-05
9.19485e-05
9.12468e-05
9.06884e-05
9.02756e-05
8.98731e-05
8.94678e-05
8.90585e-05
8.86454e-05
8.82289e-05
8.78092e-05
8.73861e-05
8.69593e-05
8.65276e-05
8.60886e-05
8.5637e-05
8.5162e-05
8.46345e-05
8.39938e-05
8.20739e-05
8.63147e-07
2.4219e-05
5.52962e-05
7.70303e-05
9.08271e-05
9.99205e-05
0.000107134
0.000114122
0.000121711
0.000130191
0.000139541
0.000149604
0.000160163
0.000171015
0.000181977
0.000192899
0.00020364
0.000214075
0.000224068
0.000233478
0.000242143
0.00024988
0.000256489
0.000261758
0.000265499
0.000267557
0.000267896
0.000265458
0.000260409
0.000252871
0.000243137
0.000231765
0.000223255
0.000234499
0.000226045
0.000243447
0.000229184
0.000242832
0.000247244
0.000246377
0.000235944
0.00025287
0.000263639
0.00026987
0.000276939
0.000284241
0.000292073
0.000299893
0.000307944
0.000316061
0.000324304
0.000332625
0.000341037
0.000349526
0.000358095
0.000366743
0.00037547
0.000384276
0.000393163
0.000402131
0.000411182
0.000420317
0.000429536
0.000438839
0.000448227
0.000457697
0.00046725
0.000476883
0.000486596
0.000496384
0.000506246
0.000516178
0.000526177
0.000536238
0.000546358
0.000556531
0.000566752
0.000577015
0.000587316
0.000597648
0.000608005
0.000618382
0.000628772
0.000639168
0.000649565
0.000659957
0.000670337
0.000680701
0.000691043
0.000701358
0.00071164
0.00072188
0.000732064
0.000742173
0.000752171
0.000762
0.000771551
0.000780642
0.000788983
0.000797302
0.000805463
0.000813497
0.00082139
0.00082914
0.000836739
0.000844184
0.000851467
0.000858584
0.000865529
0.000872298
0.000878886
0.000885288
0.0008915
0.000897517
0.000903337
0.000908953
0.000914365
0.000919566
0.000924556
0.00092933
0.000933888
0.000938225
0.00094234
0.00094623
0.000949894
0.000953332
0.000956543
0.000959527
0.000962272
0.000964804
0.000967171
0.000969231
0.000970924
0.000972421
0.000973848
0.000974958
0.000975842
0.000976499
0.000976929
0.000977134
0.000977118
0.000976882
0.000976428
0.000975763
0.000974888
0.000973809
0.000972528
0.000971051
0.00096938
0.000967523
0.000965482
0.000963264
0.000960873
0.000958316
0.000955596
0.000952721
0.000949694
0.000946521
0.000943205
0.000939747
0.000936136
0.000932313
0.000927955
0.000921859
0.000914504
0.000906737
0.000898795
0.00089075
0.000882633
0.000874456
0.000866229
0.000857957
0.000849638
0.000841265
0.000832813
0.000824231
0.000815368
0.000805982
0.000794562
0.000764428
1.85173e-06
4.07085e-05
8.87919e-05
0.00012528
0.000151634
0.000170654
0.000185008
0.000196823
0.000207578
0.000218163
0.000229009
0.000240248
0.000251842
0.000263673
0.000275603
0.000287492
0.000299203
0.000310607
0.000321565
0.000331933
0.000341546
0.000350227
0.00035779
0.000364055
0.000368875
0.000372146
0.000373825
0.000374983
0.000375985
0.000377494
0.000380529
0.000386297
0.000394761
0.000407275
0.000417692
0.000431301
0.000440498
0.000454864
0.000466573
0.000477682
0.000490272
0.000508484
0.00052462
0.000540133
0.00055592
0.000571859
0.000588064
0.000604403
0.000620927
0.000637592
0.000654409
0.000671366
0.000688464
0.0007057
0.000723076
0.000740592
0.000758251
0.000776052
0.000793998
0.000812087
0.000830322
0.000848705
0.000867233
0.000885906
0.000904721
0.000923676
0.000942767
0.00096199
0.000981339
0.00100081
0.00102039
0.00104008
0.00105987
0.00107974
0.0010997
0.00111973
0.00113982
0.00115995
0.00118013
0.00120033
0.00122054
0.00124076
0.00126096
0.00128114
0.00130129
0.00132138
0.00134141
0.00136137
0.00138123
0.00140098
0.00142061
0.00144008
0.00145937
0.00147843
0.00149722
0.00151567
0.00153369
0.0015512
0.00156826
0.0015851
0.00160166
0.00161795
0.00163393
0.00164961
0.00166498
0.00168001
0.0016947
0.00170904
0.00172302
0.00173662
0.00174984
0.00176267
0.0017751
0.00178712
0.00179873
0.00180991
0.00182065
0.00183096
0.00184083
0.00185024
0.0018592
0.0018677
0.00187574
0.00188331
0.0018904
0.00189702
0.00190317
0.00190884
0.00191404
0.00191879
0.00192316
0.00192698
0.00193002
0.00193266
0.00193502
0.00193686
0.0019382
0.00193906
0.00193946
0.0019394
0.00193888
0.00193791
0.00193649
0.00193464
0.00193236
0.00192965
0.00192653
0.00192301
0.00191909
0.00191479
0.00191011
0.00190507
0.00189968
0.00189394
0.00188787
0.00188149
0.00187479
0.00186779
0.00186051
0.00185293
0.00184505
0.00183678
0.00182778
0.00181712
0.00180506
0.00179226
0.00177907
0.00176563
0.00175198
0.00173818
0.00172424
0.00171018
0.001696
0.00168168
0.00166718
0.00165238
0.00163703
0.00162039
0.00159966
0.00155539
2.99846e-06
5.35854e-05
0.000114753
0.000162359
0.00019736
0.000223223
0.000242978
0.000258992
0.000272972
0.000286041
0.000298846
0.000311698
0.000324693
0.000337808
0.000350961
0.000364057
0.000376994
0.000389676
0.000402007
0.00041389
0.000425226
0.000435918
0.000445879
0.000455059
0.000463481
0.000471278
0.000478755
0.000486457
0.000494924
0.000504744
0.00051644
0.000530723
0.000547654
0.000566308
0.000585466
0.000605033
0.000624361
0.000644538
0.000664631
0.000685191
0.000706744
0.000729445
0.000751954
0.000774469
0.000797133
0.000819958
0.000842976
0.000866172
0.000889554
0.000913117
0.000936863
0.00096079
0.000984899
0.00100919
0.00103367
0.00105833
0.00108319
0.00110824
0.00113348
0.00115892
0.00118454
0.00121036
0.00123637
0.00126257
0.00128894
0.00131549
0.00134221
0.00136909
0.00139613
0.00142331
0.00145063
0.00147807
0.00150562
0.00153327
0.001561
0.00158881
0.00161667
0.00164458
0.00167251
0.00170045
0.00172838
0.00175628
0.00178415
0.00181195
0.00183967
0.00186729
0.00189479
0.00192215
0.00194934
0.00197635
0.00200314
0.00202969
0.00205596
0.0020819
0.00210748
0.00213264
0.00215732
0.00218153
0.00220533
0.00222877
0.00225183
0.00227449
0.00229675
0.00231857
0.00233995
0.00236086
0.00238131
0.00240125
0.0024207
0.00243962
0.00245802
0.00247587
0.00249316
0.00250988
0.00252603
0.00254158
0.00255654
0.00257089
0.00258462
0.00259773
0.0026102
0.00262204
0.00263324
0.00264378
0.00265367
0.00266291
0.00267149
0.00267941
0.00268667
0.00269336
0.00269955
0.00270479
0.00270909
0.00271294
0.00271624
0.00271885
0.00272079
0.00272207
0.00272271
0.0027227
0.00272207
0.00272081
0.00271893
0.00271645
0.00271337
0.00270971
0.00270547
0.00270067
0.00269532
0.00268943
0.00268303
0.00267611
0.0026687
0.00266081
0.00265245
0.00264364
0.0026344
0.00262474
0.00261467
0.0026042
0.0025933
0.00258191
0.00256976
0.00255632
0.00254164
0.00252613
0.00251008
0.00249365
0.00247691
0.00245993
0.00244273
0.00242534
0.00240777
0.00239002
0.00237207
0.00235383
0.00233492
0.0023144
0.00228898
0.00224248
4.16379e-06
6.44226e-05
0.000136579
0.000193431
0.000236026
0.000267899
0.000292398
0.00031213
0.000329006
0.000344339
0.000358954
0.000373319
0.000387656
0.00040204
0.000416465
0.000430893
0.000445275
0.000459565
0.000473728
0.000487733
0.000501557
0.000515186
0.000528621
0.00054189
0.000555067
0.0005683
0.000581837
0.00059603
0.000611304
0.000628122
0.000646918
0.000667617
0.000689786
0.000713427
0.0007381
0.000763211
0.000788404
0.000813917
0.000839702
0.000865959
0.000892794
0.000920121
0.000947637
0.000975316
0.00100319
0.00103125
0.00105953
0.00108801
0.0011167
0.00114561
0.00117473
0.00120406
0.0012336
0.00126336
0.00129333
0.00132351
0.00135392
0.00138456
0.00141541
0.00144649
0.00147779
0.0015093
0.00154102
0.00157295
0.00160508
0.00163739
0.00166989
0.00170256
0.00173539
0.00176836
0.00180147
0.0018347
0.00186803
0.00190146
0.00193495
0.0019685
0.00200209
0.0020357
0.00206931
0.00210289
0.00213644
0.00216992
0.00220332
0.00223661
0.00226978
0.0023028
0.00233565
0.00236829
0.00240072
0.00243289
0.00246478
0.00249637
0.00252761
0.00255848
0.00258894
0.00261898
0.00264858
0.00267773
0.00270644
0.00273471
0.00276252
0.00278986
0.00281671
0.00284304
0.00286885
0.00289411
0.0029188
0.00294291
0.00296642
0.00298932
0.00301158
0.0030332
0.00305416
0.00307445
0.00309405
0.00311296
0.00313116
0.00314864
0.00316539
0.0031814
0.00319667
0.00321118
0.00322493
0.00323791
0.00325012
0.00326155
0.0032722
0.00328208
0.0032912
0.00329975
0.00330744
0.0033141
0.00331973
0.00332491
0.00332929
0.00333288
0.00333568
0.0033377
0.00333896
0.00333945
0.0033392
0.0033382
0.00333647
0.00333401
0.00333085
0.00332699
0.00332244
0.00331721
0.00331133
0.0033048
0.00329764
0.00328987
0.0032815
0.00327255
0.00326303
0.00325297
0.00324237
0.00323126
0.00321965
0.00320754
0.00319493
0.00318176
0.00316787
0.00315297
0.00313704
0.00312029
0.00310293
0.0030851
0.00306687
0.00304833
0.0030295
0.00301043
0.00299113
0.00297162
0.00295188
0.00293178
0.00291102
0.00288863
0.00286139
0.00281727
5.28261e-06
7.3577e-05
0.000155008
0.000219852
0.000269246
0.000306611
0.000335506
0.000358725
0.000378352
0.000395864
0.000412247
0.000428111
0.000443803
0.000459499
0.000475274
0.000491152
0.000507138
0.000523239
0.000539466
0.000555842
0.000572399
0.000589178
0.000606231
0.000623618
0.00064142
0.000659741
0.000678724
0.00069855
0.00071943
0.000741582
0.000765188
0.000790292
0.000816791
0.000844177
0.000872089
0.000900516
0.000929549
0.000959054
0.000988971
0.00101933
0.00105012
0.00108128
0.00111273
0.00114443
0.00117636
0.00120851
0.0012409
0.0012735
0.00130633
0.00133939
0.00137268
0.00140619
0.00143994
0.00147392
0.00150815
0.00154261
0.00157729
0.0016122
0.00164733
0.00168268
0.00171825
0.00175402
0.00179
0.00182617
0.00186253
0.00189907
0.00193578
0.00197264
0.00200965
0.00204679
0.00208404
0.0021214
0.00215885
0.00219637
0.00223393
0.00227154
0.00230915
0.00234677
0.00238436
0.0024219
0.00245938
0.00249678
0.00253406
0.00257121
0.00260821
0.00264502
0.00268164
0.00271802
0.00275416
0.00279001
0.00282555
0.00286076
0.00289561
0.00293007
0.00296411
0.00299772
0.00303089
0.00306359
0.00309581
0.00312756
0.0031588
0.00318953
0.00321971
0.00324933
0.00327837
0.00330681
0.00333464
0.00336182
0.00338835
0.0034142
0.00343936
0.00346382
0.00348756
0.00351056
0.00353281
0.0035543
0.00357502
0.00359494
0.00361407
0.00363239
0.00364989
0.00366656
0.0036824
0.00369739
0.00371154
0.00372483
0.00373727
0.00374885
0.00375968
0.00376983
0.00377891
0.00378692
0.00379397
0.00380041
0.00380596
0.00381064
0.00381446
0.00381742
0.00381953
0.00382081
0.00382126
0.00382089
0.00381971
0.00381773
0.00381496
0.00381142
0.00380712
0.00380206
0.00379628
0.00378977
0.00378256
0.00377467
0.0037661
0.00375688
0.00374702
0.00373654
0.00372547
0.0037138
0.00370157
0.00368878
0.00367542
0.00366147
0.00364683
0.00363135
0.00361499
0.00359787
0.00358011
0.00356182
0.00354308
0.00352397
0.00350452
0.00348479
0.0034648
0.0034446
0.00342417
0.00340343
0.00338214
0.00335937
0.0033323
0.00329229
6.31269e-06
8.11784e-05
0.000170369
0.000242165
0.000297688
0.000340144
0.00037321
0.000399807
0.000422154
0.000441864
0.000460058
0.00047748
0.000494592
0.000511668
0.000528863
0.000546263
0.000563921
0.000581881
0.000600188
0.000618891
0.000638047
0.000657719
0.000677973
0.000698873
0.000720486
0.000742875
0.000766106
0.00079025
0.000815381
0.000841567
0.000868852
0.000897223
0.000926588
0.000956765
0.000987607
0.00101904
0.00105103
0.00108352
0.00111646
0.00114982
0.0011836
0.00121773
0.00125217
0.0012869
0.00132188
0.00135712
0.00139259
0.00142829
0.00146421
0.00150037
0.00153675
0.00157335
0.00161019
0.00164725
0.00168454
0.00172204
0.00175977
0.00179771
0.00183586
0.00187422
0.00191278
0.00195154
0.00199049
0.00202962
0.00206892
0.00210838
0.002148
0.00218776
0.00222765
0.00226766
0.00230777
0.00234797
0.00238824
0.00242856
0.00246893
0.00250931
0.0025497
0.00259006
0.00263039
0.00267067
0.00271086
0.00275095
0.00279093
0.00283075
0.00287041
0.00290988
0.00294914
0.00298815
0.0030269
0.00306536
0.00310351
0.00314131
0.00317875
0.0032158
0.00325243
0.00328864
0.00332439
0.00335967
0.00339447
0.00342877
0.00346254
0.00349577
0.00352844
0.00356052
0.00359199
0.00362284
0.00365304
0.00368257
0.00371142
0.00373956
0.00376698
0.00379366
0.00381958
0.00384473
0.00386909
0.00389265
0.0039154
0.00393732
0.0039584
0.00397863
0.00399799
0.00401648
0.0040341
0.00405082
0.00406665
0.00408157
0.00409559
0.00410872
0.00412116
0.00413262
0.0041431
0.00415244
0.0041609
0.00416859
0.00417534
0.00418118
0.0041861
0.00419012
0.00419324
0.00419548
0.00419684
0.00419733
0.00419696
0.00419574
0.00419369
0.00419081
0.00418713
0.00418264
0.00417738
0.00417134
0.00416455
0.00415703
0.00414879
0.00413984
0.0041302
0.00411989
0.00410894
0.00409734
0.00408513
0.00407231
0.00405888
0.00404484
0.00403013
0.00401467
0.00399844
0.00398148
0.00396389
0.00394574
0.00392711
0.00390805
0.00388863
0.00386889
0.00384889
0.00382867
0.00380826
0.00378762
0.00376655
0.00374428
0.00371843
0.00368255
7.2237e-06
8.73323e-05
0.000182905
0.000260702
0.000321724
0.000368902
0.000405944
0.000435847
0.000460919
0.00048288
0.000502963
0.000522024
0.00054063
0.000559146
0.000577798
0.000596732
0.000616042
0.000635801
0.00065607
0.000676906
0.000698369
0.000720518
0.000743414
0.00076711
0.000791682
0.000817142
0.000843507
0.00087079
0.000899
0.000928132
0.000958171
0.000989081
0.0010208
0.00105324
0.00108632
0.00111998
0.00115417
0.00118885
0.00122397
0.00125952
0.00129545
0.00133174
0.00136835
0.00140526
0.00144243
0.00147986
0.00151752
0.0015554
0.0015935
0.00163181
0.00167033
0.00170906
0.00174799
0.00178714
0.00182649
0.00186604
0.00190578
0.00194573
0.00198586
0.00202618
0.00206669
0.00210737
0.00214822
0.00218924
0.00223041
0.00227173
0.0023132
0.00235479
0.0023965
0.00243831
0.00248022
0.00252221
0.00256427
0.00260638
0.00264852
0.00269068
0.00273284
0.00277498
0.00281709
0.00285915
0.00290113
0.00294301
0.00298478
0.00302641
0.00306788
0.00310916
0.00315024
0.00319109
0.00323169
0.00327201
0.00331202
0.00335171
0.00339104
0.00343
0.00346856
0.0035067
0.00354439
0.00358163
0.00361838
0.00365463
0.00369036
0.00372553
0.00376014
0.00379415
0.00382755
0.00386032
0.00389242
0.00392385
0.00395458
0.00398459
0.00401386
0.00404237
0.00407011
0.00409706
0.0041232
0.00414852
0.004173
0.00419663
0.0042194
0.00424129
0.00426229
0.00428239
0.00430159
0.00431986
0.00433721
0.00435363
0.0043691
0.00438372
0.00439756
0.00441032
0.00442214
0.00443281
0.00444266
0.00445159
0.00445957
0.0044666
0.00447269
0.00447784
0.00448207
0.00448538
0.00448778
0.00448928
0.0044899
0.00448964
0.00448851
0.00448652
0.0044837
0.00448005
0.00447558
0.00447032
0.00446427
0.00445745
0.00444988
0.00444157
0.00443255
0.00442281
0.00441239
0.0044013
0.00438955
0.00437716
0.00436413
0.00435047
0.00433615
0.00432113
0.0043054
0.00428899
0.00427194
0.00425432
0.00423618
0.0042176
0.00419863
0.00417932
0.00415974
0.00413995
0.00412001
0.00409992
0.00407954
0.00405825
0.00403412
0.00400281
7.9972e-06
9.21471e-05
0.000192833
0.000275736
0.000341633
0.000393156
0.000433971
0.000467093
0.000494885
0.000519139
0.000541177
0.000561945
0.000582099
0.000602084
0.000622189
0.000642609
0.00066348
0.000684917
0.000706974
0.000729696
0.00075313
0.000777321
0.000802307
0.00082811
0.000854751
0.000882298
0.000910766
0.000940142
0.000970406
0.00100153
0.00103347
0.0010662
0.00109965
0.00113377
0.0011685
0.00120379
0.0012396
0.00127589
0.0013126
0.00134971
0.00138716
0.00142486
0.00146284
0.00150111
0.00153967
0.00157848
0.00161751
0.00165673
0.00169614
0.00173574
0.00177551
0.00181547
0.0018556
0.00189592
0.00193641
0.00197708
0.00201792
0.00205893
0.00210011
0.00214145
0.00218296
0.00222464
0.00226647
0.00230845
0.00235058
0.00239285
0.00243525
0.00247779
0.00252044
0.0025632
0.00260606
0.00264901
0.00269203
0.00273512
0.00277826
0.00282143
0.00286462
0.00290782
0.002951
0.00299416
0.00303726
0.00308029
0.00312323
0.00316606
0.00320876
0.0032513
0.00329367
0.00333583
0.00337776
0.00341945
0.00346086
0.00350197
0.00354276
0.00358319
0.00362326
0.00366292
0.00370217
0.00374097
0.0037793
0.00381715
0.00385447
0.00389126
0.00392749
0.00396313
0.00399815
0.00403255
0.00406628
0.00409934
0.0041317
0.00416333
0.00419422
0.00422435
0.0042537
0.00428225
0.00430998
0.00433688
0.00436293
0.00438811
0.00441242
0.00443583
0.00445834
0.00447993
0.0045006
0.00452033
0.00453911
0.00455695
0.00457382
0.00458988
0.00460497
0.00461907
0.00463219
0.00464424
0.00465543
0.00466564
0.00467487
0.00468312
0.00469042
0.00469677
0.00470217
0.00470664
0.00471018
0.0047128
0.00471452
0.00471535
0.00471529
0.00471436
0.00471257
0.00470993
0.00470647
0.00470218
0.00469709
0.00469122
0.00468457
0.00467717
0.00466902
0.00466014
0.00465055
0.00464027
0.0046293
0.00461767
0.00460538
0.00459244
0.00457884
0.00456457
0.00454962
0.004534
0.00451776
0.00450094
0.00448358
0.00446576
0.00444752
0.00442893
0.00441007
0.00439101
0.00437182
0.00435256
0.00433315
0.00431307
0.00429084
0.0042639
8.62296e-06
9.57287e-05
0.000200344
0.000287591
0.000357653
0.000413139
0.000457495
0.000493717
0.000524186
0.00055074
0.000574763
0.000597268
0.000618989
0.000640455
0.000661985
0.000683769
0.000705928
0.000728499
0.000751703
0.00077564
0.000800366
0.000825921
0.000852337
0.000879646
0.000907887
0.00093704
0.000967091
0.000997999
0.00102973
0.00106224
0.00109549
0.00112944
0.00116403
0.00119922
0.00123496
0.0012712
0.00130791
0.00134503
0.00138255
0.00142042
0.00145863
0.00149718
0.00153602
0.0015751
0.00161434
0.00165378
0.00169338
0.00173313
0.00177302
0.00181305
0.00185322
0.00189354
0.001934
0.0019746
0.00201536
0.00205627
0.00209732
0.00213853
0.00217989
0.00222141
0.00226308
0.00230491
0.00234689
0.00238903
0.00243132
0.00247377
0.00251636
0.0025591
0.00260198
0.00264499
0.00268813
0.00273139
0.00277476
0.00281823
0.00286179
0.00290542
0.00294911
0.00299285
0.00303663
0.00308041
0.00312419
0.00316795
0.00321166
0.00325531
0.00329887
0.00334232
0.00338564
0.0034288
0.00347178
0.00351455
0.00355709
0.00359936
0.00364135
0.00368303
0.00372436
0.00376533
0.00380591
0.00384607
0.00388578
0.00392503
0.00396378
0.004002
0.00403968
0.00407678
0.00411328
0.00414916
0.00418438
0.00421894
0.00425279
0.00428593
0.00431833
0.00434996
0.00438081
0.00441086
0.00444009
0.00446848
0.00449602
0.00452268
0.00454845
0.00457333
0.00459729
0.00462032
0.00464241
0.00466356
0.00468375
0.00470297
0.00472125
0.00473863
0.00475501
0.00477045
0.00478491
0.00479836
0.00481089
0.0048224
0.0048329
0.00484242
0.00485098
0.00485857
0.00486522
0.00487091
0.00487567
0.00487951
0.00488243
0.00488445
0.00488557
0.00488581
0.00488519
0.00488371
0.0048814
0.00487825
0.0048743
0.00486954
0.00486401
0.0048577
0.00485064
0.00484283
0.0048343
0.00482506
0.00481512
0.00480449
0.00479319
0.00478123
0.0047686
0.00475531
0.00474136
0.00472675
0.00471152
0.0046957
0.00467934
0.00466248
0.00464519
0.00462754
0.0046096
0.00459147
0.00457325
0.00455499
0.00453668
0.00451792
0.00449756
0.00447421
9.0994e-06
9.82037e-05
0.000205681
0.000296494
0.00037008
0.000429103
0.000476725
0.00051588
0.000548933
0.000577742
0.000603753
0.000627957
0.000651062
0.000673518
0.00069587
0.000718465
0.000741532
0.000765272
0.000789776
0.000815036
0.00084108
0.000867936
0.000895627
0.000924167
0.000953549
0.000983738
0.0010147
0.00104643
0.00107889
0.00111206
0.00114589
0.00118033
0.00121535
0.0012509
0.00128693
0.0013234
0.00136028
0.00139753
0.00143511
0.001473
0.00151116
0.00154957
0.0015882
0.00162703
0.00166613
0.00170544
0.00174486
0.00178431
0.00182383
0.00186343
0.00190312
0.00194292
0.00198283
0.00202286
0.00206302
0.00210332
0.00214375
0.00218433
0.00222507
0.00226597
0.00230704
0.00234828
0.0023897
0.0024313
0.0024731
0.00251508
0.00255726
0.00259962
0.00264218
0.00268492
0.00272785
0.00277096
0.00281424
0.00285768
0.00290127
0.00294501
0.00298887
0.00303285
0.00307692
0.00312107
0.00316529
0.00320954
0.00325382
0.00329809
0.00334234
0.00338653
0.00343065
0.00347467
0.00351855
0.00356228
0.00360583
0.00364916
0.00369225
0.00373506
0.00377758
0.00381976
0.00386158
0.00390302
0.00394404
0.00398461
0.00402471
0.0040643
0.00410336
0.00414187
0.00417978
0.00421709
0.00425376
0.00428976
0.00432507
0.00435967
0.00439353
0.00442663
0.00445895
0.00449046
0.00452116
0.00455101
0.00458001
0.00460813
0.00463535
0.00466167
0.00468707
0.00471153
0.00473505
0.00475761
0.00477921
0.00479983
0.00481949
0.0048382
0.00485592
0.00487273
0.00488855
0.00490339
0.00491735
0.00493018
0.004942
0.00495284
0.0049627
0.00497161
0.00497955
0.00498655
0.00499261
0.00499774
0.00500195
0.00500525
0.00500766
0.00500919
0.00500984
0.00500965
0.00500861
0.00500674
0.00500406
0.00500057
0.0049963
0.00499126
0.00498546
0.0049789
0.00497162
0.00496361
0.00495489
0.00494547
0.00493536
0.00492459
0.00491314
0.00490103
0.00488825
0.00487484
0.00486079
0.00484615
0.00483095
0.00481524
0.00479907
0.00478253
0.00476569
0.00474864
0.00473151
0.00471438
0.00469726
0.00467986
0.00466128
0.00464094
9.43229e-06
9.97114e-05
0.000209081
0.000302666
0.000379189
0.000441302
0.00049188
0.000533773
0.000569241
0.000600029
0.000627426
0.000652749
0.000676902
0.000700607
0.000724284
0.000748163
0.000772442
0.000797259
0.000822639
0.000848686
0.000875454
0.000902973
0.000931256
0.000960306
0.000990108
0.00102064
0.00105188
0.00108377
0.0011163
0.00114943
0.00118313
0.00121736