/*--------------------------------*- C++ -*----------------------------------*\
  =========                 |
  \\      /  F ield         | OpenFOAM: The Open Source CFD Toolbox
   \\    /   O peration     | Website:  https://openfoam.org
    \\  /    A nd           | Version:  8
     \\/     M anipulation  |
\*---------------------------------------------------------------------------*/
/*   Windows 32 and 64 bit porting by blueCAPE: http://www.bluecape.com.pt   *\
|  Based on Windows porting (2.0.x v4) by Symscape: http://www.symscape.com   |
\*---------------------------------------------------------------------------*/
FoamFile
{
    version     2.0;
    format      ascii;
    class       volScalarField;
    location    "288";
    object      p;
}
// * * * * * * * * * * * * * * * * * * * * * * * * * * * * * * * * * * * * * //

dimensions      [0 2 -2 0 0 0 0];

internalField   nonuniform List<scalar> 
12225
(
-1.3122
-3.50081
-4.60092
-4.92173
-5.10322
-5.27254
-5.40443
-5.50008
-5.57733
-5.64552
-5.70654
-5.76273
-5.81427
-5.86301
-5.90955
-5.95014
-6.00077
-5.98469
-4.47562
-5.24412
-5.40467
-5.31258
-5.30027
-5.3684
-5.44632
-5.51255
-5.57279
-5.63101
-5.68663
-5.73883
-5.7884
-5.83574
-5.88195
-5.92423
-5.97291
-6.01096
-4.87676
-4.8618
-4.98925
-5.06776
-5.16286
-5.2833
-5.3909
-5.47621
-5.54864
-5.61476
-5.67584
-5.732
-5.78476
-5.83456
-5.88301
-5.92826
-5.97925
-6.02453
-4.75482
-4.69795
-4.93964
-5.09811
-5.20004
-5.3065
-5.40456
-5.48505
-5.55438
-5.6182
-5.67769
-5.73287
-5.78496
-5.8344
-5.88259
-5.92888
-5.97846
-6.02671
-4.74446
-4.76894
-4.9971
-5.13879
-5.2226
-5.3149
-5.40647
-5.48461
-5.55271
-5.61563
-5.6746
-5.72965
-5.78176
-5.83145
-5.87991
-5.92713
-5.97606
-6.02561
-4.8024
-4.85139
-5.02575
-5.14979
-5.23149
-5.31955
-5.40792
-5.48483
-5.55231
-5.61465
-5.67322
-5.7281
-5.78012
-5.82986
-5.87832
-5.92581
-5.97403
-6.02302
-4.86271
-4.90699
-5.04226
-5.15871
-5.24262
-5.32698
-5.4112
-5.48621
-5.55276
-5.61434
-5.6723
-5.72684
-5.77861
-5.82822
-5.87647
-5.92378
-5.97116
-6.01876
-4.9162
-4.95388
-5.06392
-5.17232
-5.25547
-5.33528
-5.41496
-5.48778
-5.55324
-5.61395
-5.67121
-5.72531
-5.77674
-5.82608
-5.87396
-5.92079
-5.96717
-6.01312
-4.96588
-4.99904
-5.09003
-5.18809
-5.2683
-5.34386
-5.41925
-5.48966
-5.55382
-5.61353
-5.66997
-5.72349
-5.77444
-5.82335
-5.87069
-5.9168
-5.96203
-6.00627
-5.01286
-5.04213
-5.11771
-5.20501
-5.28133
-5.35303
-5.42434
-5.49208
-5.55467
-5.61321
-5.66868
-5.72144
-5.77176
-5.82005
-5.86667
-5.91187
-5.95586
-5.99841
-5.05708
-5.08259
-5.14584
-5.22308
-5.29486
-5.36281
-5.43019
-5.49507
-5.55586
-5.61306
-5.66742
-5.71925
-5.76878
-5.81627
-5.86201
-5.90617
-5.94885
-5.9898
-5.09501
-5.11737
-5.1716
-5.24049
-5.30768
-5.37216
-5.4361
-5.49829
-5.55726
-5.61309
-5.6663
-5.71716
-5.76581
-5.81245
-5.85728
-5.90039
-5.94186
-5.98142
-5.13001
-5.14974
-5.19659
-5.25802
-5.32056
-5.38162
-5.44231
-5.50182
-5.55888
-5.61326
-5.66524
-5.71503
-5.76271
-5.80842
-5.85226
-5.8943
-5.93458
-5.97285
-5.16665
-5.18385
-5.22389
-5.27793
-5.33528
-5.39248
-5.44964
-5.50616
-5.56095
-5.61357
-5.66406
-5.71252
-5.75901
-5.80355
-5.84621
-5.88701
-5.92596
-5.96286
-5.20369
-5.21848
-5.25248
-5.29957
-5.35146
-5.40445
-5.4579
-5.5112
-5.56341
-5.61395
-5.66268
-5.70957
-5.7546
-5.79776
-5.83904
-5.87845
-5.91597
-5.95147
-5.23913
-5.25176
-5.28068
-5.32163
-5.36817
-5.41685
-5.46654
-5.51653
-5.56597
-5.6142
-5.66092
-5.70602
-5.74939
-5.79097
-5.83073
-5.86864
-5.90468
-5.93877
-5.27007
-5.28094
-5.30588
-5.3418
-5.38363
-5.42829
-5.47446
-5.52128
-5.56795
-5.6138
-5.65842
-5.7016
-5.74319
-5.7831
-5.82127
-5.85764
-5.89222
-5.92494
-5.29215
-5.3018
-5.32403
-5.35645
-5.39483
-5.43638
-5.47972
-5.52393
-5.56822
-5.61192
-5.65459
-5.69596
-5.73584
-5.77414
-5.81076
-5.84568
-5.87888
-5.91035
-5.29849
-5.30763
-5.32882
-5.35991
-5.39692
-5.43709
-5.47901
-5.52179
-5.56466
-5.60697
-5.64826
-5.68827
-5.72682
-5.76381
-5.79918
-5.83291
-5.86498
-5.89543
-5.282
-5.29176
-5.31432
-5.34733
-5.38624
-5.42782
-5.47064
-5.51399
-5.55716
-5.59951
-5.64063
-5.68028
-5.71838
-5.75482
-5.7896
-5.82269
-5.85414
-5.88398
-5.25491
-5.26569
-5.29092
-5.32787
-5.37054
-5.41493
-5.45987
-5.50494
-5.54938
-5.59252
-5.63407
-5.67393
-5.71206
-5.74842
-5.783
-5.81586
-5.84703
-5.8766
-5.21952
-5.23132
-5.26063
-5.30415
-5.35232
-5.40018
-5.44785
-5.4954
-5.54177
-5.58616
-5.62847
-5.66881
-5.7072
-5.74365
-5.77821
-5.81096
-5.84198
-5.87137
-5.17886
-5.19073
-5.22514
-5.27834
-5.33378
-5.38562
-5.43636
-5.48664
-5.53497
-5.58066
-5.62388
-5.66486
-5.70364
-5.74029
-5.77492
-5.80767
-5.83864
-5.86796
-5.13507
-5.14603
-5.18775
-5.2521
-5.31418
-5.37073
-5.42621
-5.47991
-5.53
-5.57663
-5.62055
-5.66204
-5.7011
-5.73786
-5.77251
-5.80522
-5.83612
-5.86535
-5.08808
-5.09357
-5.15618
-5.23432
-5.29616
-5.35428
-5.41528
-5.47348
-5.52583
-5.5737
-5.61853
-5.66061
-5.69995
-5.7368
-5.77144
-5.80408
-5.8349
-5.8641
-5.04474
-5.00839
-5.11788
-5.22878
-5.29093
-5.34609
-5.40815
-5.46774
-5.52079
-5.56934
-5.61487
-5.65749
-5.69717
-5.73422
-5.76896
-5.80167
-5.83253
-5.86174
-5.05894
-4.89997
-5.02884
-5.18285
-5.27285
-5.3441
-5.41288
-5.47364
-5.52627
-5.57438
-5.61948
-5.66156
-5.70066
-5.73715
-5.77135
-5.80356
-5.83402
-5.86295
-5.18212
-5.00172
-5.01584
-5.0879
-5.17617
-5.27527
-5.36582
-5.43944
-5.50098
-5.55594
-5.60608
-5.65167
-5.6933
-5.73161
-5.76713
-5.8003
-5.83159
-5.86161
-4.88949
-5.48056
-5.56934
-5.44502
-5.39059
-5.41762
-5.46446
-5.50755
-5.54894
-5.59095
-5.63227
-5.67143
-5.70821
-5.74276
-5.77515
-5.80554
-5.83414
-5.86274
-1.90016
-3.66344
-4.66809
-4.96716
-5.11624
-5.25974
-5.37364
-5.45444
-5.51851
-5.5752
-5.62629
-5.67215
-5.71366
-5.75171
-5.78684
-5.81882
-5.84753
-5.87119
-6.7311
-6.73111
-6.73148
-6.73222
-6.73321
-6.73434
-6.73564
-6.73713
-6.73884
-6.74083
-6.74315
-6.74584
-6.74895
-6.75254
-6.75663
-6.7613
-6.76657
-6.77249
-6.77909
-6.78643
-6.79453
-6.80343
-6.81318
-6.8238
-6.83536
-6.84795
-6.86175
-6.87687
-6.89317
-6.91017
-6.92736
-6.9441
-6.95992
-6.97604
-6.99579
-7.01966
-7.04586
-7.07396
-7.1029
-7.1318
-7.16092
-7.18726
-7.20863
-7.23197
-7.25914
-7.28706
-7.31588
-7.34526
-7.37504
-7.40508
-7.43526
-7.46545
-7.49556
-7.52549
-7.55513
-7.58438
-7.61315
-7.64133
-7.66881
-7.69547
-7.72119
-7.74585
-7.76932
-7.79145
-7.81211
-7.83115
-7.8484
-7.86371
-7.87691
-7.88784
-7.8963
-7.90212
-7.90511
-7.90509
-7.90187
-7.89524
-7.88501
-7.871
-7.85298
-7.83079
-7.8042
-7.77303
-7.7371
-7.69621
-7.65017
-7.59882
-7.54196
-7.47945
-7.41109
-7.33677
-7.25634
-7.16967
-7.07663
-6.97709
-6.871
-6.75843
-6.63951
-6.51403
-6.3814
-6.24149
-6.09455
-5.94064
-5.77979
-5.61204
-5.43742
-5.25596
-5.06774
-4.87282
-4.6713
-4.46328
-4.24889
-4.02827
-3.80155
-3.5689
-3.33051
-3.08657
-2.83727
-2.58283
-2.32349
-2.05948
-1.79107
-1.51851
-1.24208
-0.96203
-0.678658
-0.392261
-0.103141
0.188388
0.482026
0.777471
1.07442
1.37251
1.67141
1.9708
2.2704
2.56987
2.8689
3.16716
3.46435
3.76016
4.05429
4.34647
4.63642
4.92386
5.20854
5.49021
5.76864
6.0436
6.31489
6.58228
6.84561
7.1047
7.35938
7.6095
7.85493
8.09555
8.33124
8.56191
8.78747
9.00784
9.22298
9.43283
9.63747
9.83691
10.0309
10.2193
10.402
10.5791
10.7506
10.9165
11.0768
11.2316
11.3809
11.5249
11.6637
11.7977
11.9283
12.0569
12.1951
12.3396
-6.73006
-6.73032
-6.7308
-6.73148
-6.73215
-6.73275
-6.73337
-6.73416
-6.73523
-6.73663
-6.73842
-6.74061
-6.74325
-6.74636
-6.74997
-6.75412
-6.75885
-6.76419
-6.77018
-6.77685
-6.78425
-6.79239
-6.8013
-6.811
-6.8215
-6.8328
-6.84485
-6.8575
-6.87057
-6.88407
-6.89821
-6.91345
-6.93097
-6.95221
-6.97486
-6.99613
-7.01702
-7.03754
-7.05861
-7.08208
-7.10671
-7.13444
-7.16949
-7.20478
-7.23544
-7.26542
-7.29525
-7.32513
-7.3551
-7.38516
-7.41524
-7.44528
-7.47521
-7.50495
-7.5344
-7.56348
-7.59208
-7.62012
-7.64748
-7.67405
-7.69971
-7.72435
-7.74782
-7.77
-7.79074
-7.8099
-7.82732
-7.84284
-7.8563
-7.86752
-7.87632
-7.88253
-7.88596
-7.88643
-7.88374
-7.8777
-7.86811
-7.85477
-7.8375
-7.81609
-7.79035
-7.76008
-7.72509
-7.6852
-7.64022
-7.58997
-7.53429
-7.473
-7.40593
-7.33296
-7.25395
-7.16877
-7.07728
-6.97936
-6.8749
-6.76377
-6.64575
-6.52073
-6.38891
-6.2504
-6.10504
-5.95278
-5.79363
-5.62757
-5.45466
-5.27492
-5.08841
-4.8952
-4.69539
-4.48908
-4.27638
-4.05742
-3.83235
-3.60134
-3.36456
-3.12219
-2.87444
-2.62151
-2.36363
-2.10105
-1.83403
-1.5628
-1.28765
-1.00883
-0.726633
-0.441351
-0.153287
0.137248
0.429953
0.724534
1.02068
1.31806
1.6163
1.91511
2.2142
2.51324
2.81191
3.10989
3.40687
3.70255
3.99663
4.28883
4.57887
4.86647
5.1514
5.43338
5.71218
5.98759
6.25938
6.52734
6.7913
7.05107
7.3065
7.55741
7.80369
8.0452
8.28183
8.51348
8.74006
8.96152
9.17782
9.38891
9.59457
9.79448
9.9887
10.1773
10.3604
10.5378
10.7098
10.8761
11.037
11.1923
11.3423
11.4869
11.6266
11.7618
11.8941
12.0245
12.1655
12.3048
-6.72642
-6.7273
-6.72857
-6.72967
-6.73037
-6.73081
-6.7312
-6.73172
-6.73251
-6.73364
-6.73517
-6.73714
-6.73957
-6.74248
-6.74591
-6.74989
-6.75445
-6.75962
-6.76544
-6.77193
-6.77913
-6.78706
-6.79573
-6.80518
-6.8154
-6.8264
-6.83819
-6.85067
-6.86379
-6.87762
-6.89247
-6.90887
-6.92747
-6.94857
-6.97114
-6.99389
-7.01673
-7.03975
-7.06305
-7.08673
-7.11053
-7.13544
-7.16308
-7.19207
-7.22089
-7.24993
-7.27915
-7.30852
-7.33799
-7.36753
-7.39708
-7.42659
-7.45599
-7.48521
-7.51416
-7.54276
-7.57092
-7.59854
-7.62552
-7.65175
-7.67711
-7.70148
-7.72473
-7.74674
-7.76736
-7.78644
-7.80383
-7.81938
-7.83291
-7.84426
-7.85325
-7.85971
-7.86345
-7.86428
-7.86201
-7.85646
-7.84743
-7.83472
-7.81813
-7.79747
-7.77254
-7.74316
-7.70912
-7.67025
-7.62636
-7.57726
-7.52279
-7.46278
-7.39705
-7.32548
-7.24791
-7.16422
-7.07428
-6.97797
-6.87521
-6.76586
-6.64973
-6.52669
-6.39681
-6.26018
-6.11673
-5.96644
-5.80927
-5.64524
-5.47437
-5.29668
-5.11225
-4.92113
-4.72341
-4.51918
-4.30856
-4.09169
-3.86869
-3.63974
-3.40499
-3.16464
-2.91887
-2.6679
-2.41196
-2.15127
-1.88609
-1.61667
-1.34327
-1.06616
-0.78561
-0.501919
-0.21539
0.0736722
0.364966
0.658205
0.953076
1.24924
1.54635
1.84412
2.14224
2.44038
2.73822
3.03546
3.33179
3.62689
3.92047
4.21225
4.50195
4.7893
5.07404
5.35591
5.63468
5.91012
6.18201
6.45015
6.71434
6.9744
7.23017
7.48149
7.72822
7.97023
8.20739
8.43961
8.66678
8.88882
9.10562
9.31718
9.52345
9.72435
9.91983
10.1098
10.2942
10.4731
10.6463
10.814
10.9762
11.1329
11.2842
11.4303
11.5717
11.7087
11.8433
11.9756
12.1189
12.2461
-6.7204
-6.72203
-6.72449
-6.72652
-6.7278
-6.72864
-6.72931
-6.73
-6.73086
-6.73201
-6.73351
-6.73542
-6.73778
-6.74063
-6.74399
-6.7479
-6.75238
-6.75746
-6.76318
-6.76956
-6.77662
-6.78439
-6.79288
-6.80212
-6.81213
-6.82293
-6.83453
-6.84693
-6.86013
-6.8742
-6.88936
-6.90592
-6.9242
-6.94425
-6.96569
-6.98796
-7.01077
-7.0341
-7.05801
-7.08244
-7.1073
-7.13278
-7.15916
-7.18631
-7.21398
-7.2421
-7.27056
-7.29928
-7.32817
-7.35718
-7.38624
-7.41529
-7.44425
-7.47305
-7.50161
-7.52985
-7.55769
-7.58502
-7.61174
-7.63775
-7.66292
-7.68715
-7.7103
-7.73225
-7.75284
-7.77195
-7.7894
-7.80505
-7.81873
-7.83028
-7.83951
-7.84626
-7.85032
-7.85153
-7.8497
-7.84461
-7.8361
-7.82395
-7.80797
-7.78797
-7.76375
-7.73512
-7.70189
-7.66386
-7.62086
-7.5727
-7.51921
-7.46021
-7.39555
-7.32508
-7.24864
-7.16611
-7.07734
-6.98222
-6.88064
-6.7725
-6.65766
-6.53605
-6.40766
-6.27251
-6.13055
-5.98176
-5.82612
-5.66364
-5.49432
-5.31821
-5.13536
-4.94582
-4.74969
-4.54705
-4.33802
-4.12273
-3.90131
-3.67392
-3.44072
-3.2019
-2.95765
-2.70817
-2.45369
-2.19444
-1.93067
-1.66262
-1.39055
-1.11473
-0.835438
-0.552959
-0.267597
0.0203441
0.31057
0.602795
0.896693
1.19192
1.48818
1.78515
2.08253
2.37998
2.6772
2.97388
3.2697
3.56435
3.85755
4.14901
4.43845
4.72559
5.01018
5.29197
5.57071
5.84617
6.11813
6.38639
6.65075
6.91103
7.16706
7.41868
7.66574
7.90811
8.14566
8.3783
8.60595
8.82849
9.04585
9.25797
9.46483
9.66645
9.86275
10.0536
10.2389
10.4187
10.5929
10.7615
10.9246
11.0822
11.2346
11.3817
11.5241
11.6623
11.798
11.9301
12.0716
12.185
-6.71336
-6.71579
-6.7197
-6.7229
-6.72501
-6.72647
-6.72765
-6.72875
-6.72993
-6.73132
-6.73302
-6.7351
-6.73761
-6.74059
-6.74406
-6.74808
-6.75267
-6.75785
-6.76366
-6.77013
-6.77728
-6.78514
-6.79374
-6.80309
-6.81322
-6.82417
-6.83597
-6.84864
-6.86223
-6.87679
-6.89246
-6.90938
-6.92767
-6.94732
-6.96815
-6.9899
-7.01235
-7.0354
-7.05906
-7.0833
-7.10814
-7.13362
-7.15974
-7.18642
-7.21356
-7.24111
-7.26902
-7.2972
-7.3256
-7.35415
-7.38278
-7.41142
-7.44001
-7.46847
-7.49673
-7.52469
-7.55227
-7.57938
-7.60591
-7.63176
-7.65681
-7.68094
-7.70404
-7.72596
-7.74656
-7.7657
-7.78323
-7.79899
-7.81282
-7.82454
-7.83398
-7.84097
-7.84531
-7.84683
-7.84533
-7.84062
-7.83251
-7.82079
-7.80528
-7.78578
-7.76209
-7.73402
-7.70138
-7.66397
-7.62161
-7.57413
-7.52134
-7.46308
-7.39917
-7.32947
-7.25384
-7.17213
-7.08421
-6.98995
-6.88925
-6.782
-6.66811
-6.5475
-6.42015
-6.28603
-6.14511
-5.99736
-5.84277
-5.68134
-5.51309
-5.33805
-5.15627
-4.96781
-4.77276
-4.57121
-4.36326
-4.14904
-3.92869
-3.70236
-3.47021
-3.23243
-2.9892
-2.74073
-2.48725
-2.22897
-1.96615
-1.69903
-1.42786
-1.15291
-0.874453
-0.592789
-0.308211
-0.0210226
0.268498
0.560048
0.853294
1.1479
1.44359
1.74005
2.03695
2.33396
2.63079
2.9271
3.22261
3.517
3.80998
4.10126
4.39056
4.67761
4.96216
5.24394
5.52271
5.79825
6.07032
6.33873
6.60328
6.86378
7.12006
7.37196
7.61933
7.86205
8.1
8.33305
8.56113
8.78412
9.00195
9.21455
9.42186
9.62387
9.82055
10.0118
10.1976
10.3778
10.5525
10.7216
10.8853
11.0434
11.1963
11.344
11.4869
11.6254
11.761
11.8916
12.0297
12.1303
-6.70674
-6.70994
-6.71521
-6.71959
-6.72258
-6.72476
-6.72654
-6.72816
-6.7298
-6.73159
-6.73365
-6.73605
-6.73885
-6.74211
-6.74587
-6.75016
-6.75501
-6.76046
-6.76654
-6.77328
-6.7807
-6.78885
-6.79774
-6.8074
-6.81788
-6.82919
-6.84137
-6.85447
-6.86851
-6.88354
-6.89963
-6.91684
-6.93519
-6.95467
-6.97517
-6.99656
-7.01871
-7.04153
-7.06495
-7.08894
-7.11351
-7.13866
-7.16439
-7.19063
-7.21733
-7.24444
-7.2719
-7.29966
-7.32766
-7.35583
-7.38411
-7.41244
-7.44073
-7.46893
-7.49695
-7.52471
-7.55212
-7.57908
-7.6055
-7.63126
-7.65625
-7.68036
-7.70346
-7.7254
-7.74606
-7.76529
-7.78293
-7.79882
-7.8128
-7.8247
-7.83435
-7.84156
-7.84616
-7.84795
-7.84674
-7.84234
-7.83456
-7.8232
-7.80806
-7.78894
-7.76566
-7.73801
-7.7058
-7.66885
-7.62696
-7.57996
-7.52767
-7.46993
-7.40655
-7.33739
-7.26232
-7.18118
-7.09384
-7.00018
-6.90009
-6.79348
-6.68024
-6.56032
-6.43366
-6.30024
-6.16002
-6.01297
-5.85908
-5.69836
-5.53082
-5.3565
-5.17544
-4.98771
-4.79338
-4.59255
-4.38533
-4.17183
-3.95221
-3.72659
-3.49516
-3.25808
-3.01556
-2.76778
-2.51498
-2.25738
-1.99522
-1.72873
-1.45819
-1.18384
-0.905978
-0.624885
-0.340861
-0.054199
0.234823
0.525887
0.818658
1.11282
1.4081
1.70419
2.00075
2.29744
2.59398
2.89004
3.18531
3.4795
3.77232
4.06347
4.35267
4.63966
4.92417
5.20594
5.48474
5.76034
6.0325
6.30102
6.56571
6.82637
7.08285
7.33498
7.58261
7.8256
8.06384
8.29721
8.52561
8.74893
8.96711
9.18004
9.38767
9.58996
9.7869
9.97843
10.1645
10.345
10.52
10.6895
10.8535
11.012
11.1651
11.3131
11.4562
11.5945
11.7294
11.858
11.9927
12.0818
-6.70162
-6.70553
-6.71191
-6.71731
-6.72113
-6.72403
-6.72644
-6.72863
-6.73077
-6.73303
-6.73551
-6.73832
-6.74152
-6.74516
-6.74929
-6.75394
-6.75916
-6.76498
-6.77143
-6.77853
-6.78634
-6.79486
-6.80414
-6.8142
-6.82508
-6.83679
-6.84938
-6.86287
-6.8773
-6.89267
-6.90904
-6.92641
-6.94478
-6.96414
-6.98441
-7.00551
-7.02738
-7.04994
-7.07313
-7.09692
-7.12128
-7.14618
-7.17161
-7.19754
-7.22392
-7.2507
-7.27784
-7.30528
-7.33298
-7.36088
-7.38891
-7.41701
-7.44511
-7.47314
-7.50102
-7.52866
-7.55598
-7.58288
-7.60926
-7.63501
-7.66002
-7.68417
-7.70732
-7.72935
-7.75012
-7.76947
-7.78725
-7.8033
-7.81745
-7.82955
-7.8394
-7.84683
-7.85165
-7.85368
-7.85272
-7.84858
-7.84106
-7.82998
-7.81512
-7.79629
-7.7733
-7.74595
-7.71405
-7.67741
-7.63584
-7.58917
-7.53721
-7.47979
-7.41676
-7.34795
-7.27323
-7.19244
-7.10547
-7.01219
-6.91248
-6.80626
-6.69344
-6.57394
-6.44772
-6.31473
-6.17494
-6.02832
-5.87487
-5.71459
-5.54749
-5.37361
-5.19301
-5.00573
-4.81186
-4.61149
-4.40474
-4.19171
-3.97255
-3.74741
-3.51645
-3.27984
-3.03778
-2.79047
-2.53814
-2.281
-2.01928
-1.75324
-1.48313
-1.20921
-0.931764
-0.651078
-0.367454
-0.0811667
0.207485
0.498179
0.79059
1.08443
1.3794
1.6752
1.97148
2.26793
2.56423
2.86007
3.15516
3.44918
3.74184
4.03287
4.32197
4.60888
4.89334
5.17508
5.45387
5.72947
6.00167
6.27025
6.53502
6.7958
7.0524
7.30468
7.55247
7.79565
8.03409
8.26767
8.49629
8.71985
8.93826
9.15143
9.3593
9.56181
9.75896
9.9507
10.137
10.3177
10.493
10.6627
10.8269
10.9856
11.139
11.287
11.43
11.5679
11.7018
11.8281
11.9596
12.0388
-6.69875
-6.7032
-6.71039
-6.71658
-6.72111
-6.72465
-6.72766
-6.73038
-6.73303
-6.73576
-6.7387
-6.74194
-6.74556
-6.74961
-6.75414
-6.7592
-6.76482
-6.77104
-6.77789
-6.7854
-6.79361
-6.80253
-6.81221
-6.82267
-6.83393
-6.84602
-6.85897
-6.87279
-6.8875
-6.90313
-6.91967
-6.93714
-6.95551
-6.97477
-6.99488
-7.01578
-7.03742
-7.05975
-7.08273
-7.10631
-7.13047
-7.15518
-7.18041
-7.20613
-7.23229
-7.25885
-7.28579
-7.31303
-7.34055
-7.36828
-7.39617
-7.42414
-7.45214
-7.48009
-7.50792
-7.53553
-7.56285
-7.58976
-7.61619
-7.642
-7.66709
-7.69134
-7.71461
-7.73677
-7.75767
-7.77718
-7.79513
-7.81135
-7.82569
-7.83797
-7.84802
-7.85565
-7.86067
-7.8629
-7.86214
-7.85821
-7.85089
-7.84001
-7.82535
-7.80671
-7.78392
-7.75676
-7.72505
-7.68859
-7.64721
-7.60071
-7.54893
-7.49169
-7.42883
-7.3602
-7.28566
-7.20505
-7.11826
-7.02516
-6.92565
-6.81962
-6.70701
-6.58772
-6.46171
-6.32894
-6.18937
-6.04297
-5.88974
-5.72969
-5.56282
-5.38919
-5.20882
-5.02179
-4.82818
-4.62807
-4.42158
-4.20882
-3.98994
-3.76508
-3.5344
-3.29808
-3.05632
-2.80931
-2.55728
-2.30044
-2.03902
-1.77328
-1.50346
-1.22983
-0.952683
-0.672288
-0.388945
-0.102932
0.185439
0.475849
0.767987
1.06157
1.35631
1.65188
1.94794
2.24418
2.54028
2.83594
3.13085
3.42472
3.71724
4.00814
4.29714
4.58395
4.86833
5.15002
5.42877
5.70435
5.97655
6.24515
6.50995
6.77077
7.02744
7.2798
7.52769
7.77099
8.00955
8.24327
8.47204
8.69575
8.91433
9.12767
9.33571
9.5384
9.73572
9.92762
10.1141
10.295
10.4704
10.6403
10.8047
10.9635
11.1169
11.2649
11.4076
11.5449
11.6775
11.8015
11.9302
12.0007
-6.69847
-6.70326
-6.71094
-6.71767
-6.72274
-6.72681
-6.73032
-6.73353
-6.73664
-6.73981
-6.74317
-6.74682
-6.75083
-6.75527
-6.76019
-6.76563
-6.77163
-6.77823
-6.78546
-6.79335
-6.80193
-6.81122
-6.82126
-6.83206
-6.84365
-6.85605
-6.86928
-6.88335
-6.89827
-6.91406
-6.93071
-6.94822
-6.96658
-6.98577
-7.00576
-7.02651
-7.04798
-7.07014
-7.09295
-7.11638
-7.1404
-7.16497
-7.19006
-7.21564
-7.24167
-7.26812
-7.29495
-7.3221
-7.34953
-7.37719
-7.40503
-7.43298
-7.46097
-7.48893
-7.51679
-7.54446
-7.57185
-7.59885
-7.62538
-7.65132
-7.67654
-7.70093
-7.72436
-7.74669
-7.76777
-7.78745
-7.80557
-7.82198
-7.8365
-7.84895
-7.85917
-7.86697
-7.87215
-7.87454
-7.87393
-7.87013
-7.86294
-7.85218
-7.83763
-7.8191
-7.79639
-7.76931
-7.73767
-7.70128
-7.65995
-7.61351
-7.56177
-7.50456
-7.44174
-7.37313
-7.29861
-7.21803
-7.13126
-7.03819
-6.9387
-6.83271
-6.72013
-6.60088
-6.47492
-6.3422
-6.20267
-6.05633
-5.90316
-5.74316
-5.57637
-5.40281
-5.22252
-5.03559
-4.84207
-4.64208
-4.4357
-4.22308
-4.00433
-3.77961
-3.54909
-3.31294
-3.07135
-2.82453
-2.57268
-2.31603
-2.0548
-1.78926
-1.51964
-1.24623
-0.96928
-0.689099
-0.405958
-0.120158
0.167991
0.458175
0.750098
1.04347
1.33802
1.6334
1.92927
2.22532
2.52124
2.81672
3.11147
3.40518
3.69756
3.98832
4.2772
4.56391
4.8482
5.12981
5.40849
5.68402
5.95618
6.22475
6.48954
6.75037
7.00706
7.25944
7.50738
7.75073
7.98937
8.22317
8.45203
8.67585
8.89452
9.10798
9.31614
9.51896
9.7164
9.90842
10.095
10.276
10.4516
10.6216
10.786
10.9449
11.0982
11.246
11.3883
11.5248
11.6561
11.7777
11.9039
11.967
-6.7008
-6.70575
-6.71362
-6.72063
-6.72607
-6.73052
-6.73443
-6.73803
-6.74151
-6.74505
-6.74877
-6.75276
-6.75711
-6.76188
-6.76713
-6.7729
-6.77923
-6.78614
-6.79368
-6.80188
-6.81076
-6.82034
-6.83066
-6.84172
-6.85355
-6.86618
-6.8796
-6.89383
-6.90889
-6.92477
-6.94148
-6.95901
-6.97734
-6.99647
-7.01637
-7.03702
-7.05838
-7.08043
-7.10313
-7.12646
-7.15039
-7.17488
-7.19991
-7.22544
-7.25144
-7.27785
-7.30466
-7.3318
-7.35924
-7.38693
-7.41481
-7.44282
-7.47088
-7.49894
-7.5269
-7.55469
-7.58221
-7.60937
-7.63605
-7.66215
-7.68755
-7.71212
-7.73572
-7.75823
-7.77948
-7.79934
-7.81763
-7.8342
-7.84887
-7.86147
-7.87182
-7.87973
-7.88502
-7.88749
-7.88696
-7.88322
-7.87608
-7.86534
-7.85081
-7.83228
-7.80956
-7.78245
-7.75077
-7.71432
-7.67292
-7.6264
-7.57457
-7.51728
-7.45435
-7.38565
-7.31102
-7.23032
-7.14344
-7.05026
-6.95067
-6.84457
-6.73189
-6.61255
-6.48649
-6.35368
-6.21408
-6.06766
-5.91442
-5.75437
-5.58752
-5.41392
-5.23361
-5.04665
-4.85313
-4.65314
-4.44679
-4.23419
-4.01549
-3.79083
-3.56038
-3.32431
-3.08282
-2.8361
-2.58437
-2.32784
-2.06675
-1.80135
-1.53188
-1.25863
-0.981846
-0.701831
-0.418861
-0.133246
0.154707
0.444699
0.736429
1.02962
1.32398
1.61916
1.91484
2.2107
2.50643
2.80173
3.0963
3.38984
3.68207
3.97268
4.26142
4.548
4.83217
5.11367
5.39225
5.66769
5.93977
6.20828
6.47302
6.7338
6.99046
7.24283
7.49077
7.73413
7.97279
8.20663
8.43553
8.6594
8.87814
9.09166
9.2999
9.50281
9.70033
9.89243
10.0791
10.2602
10.4358
10.6059
10.7703
10.9292
11.0824
11.2299
11.3717
11.5073
11.6372
11.7566
11.8805
11.9372
-6.70557
-6.71051
-6.7183
-6.72537
-6.73098
-6.73567
-6.73983
-6.74371
-6.74747
-6.75128
-6.75526
-6.75952
-6.76413
-6.76915
-6.77463
-6.78063
-6.78719
-6.79432
-6.80208
-6.81048
-6.81955
-6.82932
-6.8398
-6.85103
-6.86301
-6.87576
-6.8893
-6.90363
-6.91876
-6.93469
-6.95142
-6.96895
-6.98727
-7.00636
-7.02621
-7.04679
-7.0681
-7.09009
-7.11274
-7.13604
-7.15994
-7.18442
-7.20945
-7.23501
-7.26103
-7.2875
-7.31436
-7.34158
-7.36911
-7.3969
-7.4249
-7.45303
-7.48124
-7.50944
-7.53756
-7.56552
-7.59322
-7.62055
-7.64742
-7.67371
-7.69929
-7.72403
-7.74781
-7.77048
-7.79189
-7.81189
-7.83031
-7.84699
-7.86176
-7.87444
-7.88485
-7.8928
-7.89812
-7.9006
-7.90005
-7.89627
-7.88908
-7.87826
-7.86363
-7.84499
-7.82214
-7.79489
-7.76305
-7.72643
-7.68485
-7.63813
-7.5861
-7.5286
-7.46545
-7.39653
-7.32167
-7.24076
-7.15366
-7.06026
-6.96045
-6.85414
-6.74125
-6.62171
-6.49547
-6.36247
-6.2227
-6.07611
-5.92272
-5.76252
-5.59555
-5.42183
-5.24142
-5.05438
-4.86079
-4.66074
-4.45435
-4.24173
-4.02303
-3.79838
-3.56795
-3.33193
-3.0905
-2.84385
-2.59221
-2.33577
-2.0748
-1.80951
-1.54019
-1.26707
-0.990448
-0.710595
-0.427806
-0.142383
0.14537
0.435163
0.726688
1.01968
1.31384
1.60881
1.90427
2.19992
2.49544
2.79053
3.0849
3.37825
3.67028
3.96072
4.24928
4.53569
4.8197
5.10104
5.37949
5.6548
5.92675
6.19515
6.45979
6.7205
6.97708
7.2294
7.47729
7.72062
7.95925
8.19308
8.42198
8.64586
8.86462
9.07818
9.28646
9.48941
9.68698
9.87913
10.0658
10.247
10.4226
10.5927
10.7571
10.9159
11.0689
11.216
11.3572
11.4919
11.6204
11.7377
11.8594
11.9107
-6.71245
-6.71722
-6.72473
-6.73164
-6.73725
-6.74202
-6.74631
-6.75034
-6.75426
-6.75823
-6.76237
-6.76678
-6.77153
-6.77668
-6.78229
-6.7884
-6.79506
-6.8023
-6.81014
-6.81863
-6.82779
-6.83764
-6.8482
-6.8595
-6.87154
-6.88435
-6.89794
-6.91231
-6.92746
-6.94341
-6.96015
-6.97767
-6.99598
-7.01505
-7.03488
-7.05545
-7.07674
-7.09873
-7.1214
-7.14472
-7.16866
-7.19319
-7.21828
-7.2439
-7.27001
-7.29658
-7.32357
-7.35093
-7.37861
-7.40656
-7.43472
-7.46303
-7.49141
-7.5198
-7.5481
-7.57624
-7.60412
-7.63164
-7.65868
-7.68513
-7.71086
-7.73575
-7.75965
-7.78243
-7.80393
-7.824
-7.84248
-7.85919
-7.87397
-7.88663
-7.897
-7.9049
-7.91013
-7.9125
-7.91182
-7.90789
-7.90053
-7.88952
-7.87468
-7.85581
-7.83272
-7.80521
-7.77309
-7.73619
-7.69431
-7.64729
-7.59496
-7.53714
-7.47368
-7.40444
-7.32927
-7.24805
-7.16064
-7.06694
-6.96683
-6.86024
-6.74707
-6.62727
-6.50077
-6.36753
-6.22752
-6.08072
-5.92713
-5.76675
-5.59961
-5.42574
-5.24519
-5.05804
-4.86435
-4.66423
-4.45778
-4.24513
-4.0264
-3.80176
-3.57136
-3.33538
-3.09401
-2.84745
-2.5959
-2.33958
-2.07873
-1.8136
-1.54443
-1.27148
-0.995043
-0.715386
-0.43281
-0.147608
0.139925
0.429485
0.720771
1.01353
1.30745
1.60216
1.89736
2.19275
2.48801
2.78285
3.07697
3.37007
3.66187
3.95207
4.24041
4.5266
4.8104
5.09154
5.3698
5.64493
5.91672
6.18496
6.44945
6.71002
6.96649
7.2187
7.4665
7.70975
7.94832
8.1821
8.41096
8.63481
8.85356
9.06711
9.2754
9.47837
9.67597
9.86814
10.0549
10.236
10.4117
10.5817
10.7461
10.9047
11.0574
11.2042
11.3447
11.4784
11.6056
11.7208
11.8406
11.8874
-6.72103
-6.72554
-6.73259
-6.73918
-6.74464
-6.74934
-6.75362
-6.75765
-6.76159
-6.76559
-6.76975
-6.77418
-6.77893
-6.78408
-6.78968
-6.79578
-6.80242
-6.80964
-6.81747
-6.82595
-6.8351
-6.84493
-6.85549
-6.86677
-6.87881
-6.89161
-6.90519
-6.91955
-6.9347
-6.95064
-6.96737
-6.98489
-7.00319
-7.02227
-7.04211
-7.0627
-7.08402
-7.10605
-7.12876
-7.15213
-7.17614
-7.20075
-7.22594
-7.25167
-7.27792
-7.30464
-7.3318
-7.35934
-7.3872
-7.41534
-7.44368
-7.47216
-7.50071
-7.52926
-7.55772
-7.58601
-7.61403
-7.64167
-7.66882
-7.69537
-7.72117
-7.74611
-7.77005
-7.79284
-7.81432
-7.83435
-7.85275
-7.86937
-7.88403
-7.89655
-7.90676
-7.91446
-7.91947
-7.9216
-7.92066
-7.91646
-7.90879
-7.89747
-7.8823
-7.86308
-7.83963
-7.81175
-7.77926
-7.74198
-7.69972
-7.6523
-7.59957
-7.54136
-7.47752
-7.40789
-7.33235
-7.25076
-7.16299
-7.06893
-6.96849
-6.86157
-6.7481
-6.628
-6.50122
-6.36772
-6.22746
-6.08044
-5.92664
-5.76607
-5.59876
-5.42475
-5.24409
-5.05683
-4.86307
-4.6629
-4.45642
-4.24376
-4.02505
-3.80045
-3.57011
-3.33422
-3.09295
-2.84651
-2.5951
-2.33895
-2.07827
-1.81333
-1.54437
-1.27165
-0.995451
-0.716057
-0.433752
-0.148823
0.138431
0.427689
0.71868
1.01115
1.30476
1.59914
1.89401
2.18907
2.48401
2.77853
3.07234
3.36513
3.65663
3.94653
4.23458
4.5205
4.80403
5.08491
5.36291
5.6378
5.90937
6.17739
6.44169
6.70207
6.95838
7.21043
7.45809
7.70122
7.93969
8.17337
8.40216
8.62595
8.84465
9.05817
9.26644
9.4694
9.66699
9.85917
10.0459
10.2271
10.4027
10.5727
10.7369
10.8953
11.0478
11.1941
11.334
11.4667
11.5925
11.7058
11.8237
11.8669
-6.73093
-6.73509
-6.74158
-6.74772
-6.75288
-6.75736
-6.76146
-6.76534
-6.76915
-6.77301
-6.77703
-6.78131
-6.78593
-6.79094
-6.7964
-6.80237
-6.80889
-6.81599
-6.82371
-6.83208
-6.84112
-6.85087
-6.86134
-6.87254
-6.88451
-6.89725
-6.91078
-6.92509
-6.94021
-6.95613
-6.97286
-6.99038
-7.00869
-7.02778
-7.04764
-7.06825
-7.0896
-7.11167
-7.13444
-7.15788
-7.18198
-7.2067
-7.23201
-7.2579
-7.2843
-7.31119
-7.3385
-7.3662
-7.39421
-7.42248
-7.45094
-7.47953
-7.50818
-7.53681
-7.56535
-7.59369
-7.62173
-7.64938
-7.67652
-7.70302
-7.72875
-7.7536
-7.77741
-7.80005
-7.82135
-7.84118
-7.85935
-7.87572
-7.8901
-7.90232
-7.9122
-7.91955
-7.9242
-7.92596
-7.92462
-7.92001
-7.91192
-7.90017
-7.88456
-7.8649
-7.841
-7.81267
-7.77973
-7.74199
-7.69928
-7.65142
-7.59825
-7.53961
-7.47534
-7.40531
-7.32937
-7.24739
-7.15926
-7.06485
-6.96407
-6.85683
-6.74306
-6.62268
-6.49564
-6.3619
-6.22143
-6.07421
-5.92024
-5.75953
-5.5921
-5.41799
-5.23725
-5.04995
-4.85617
-4.656
-4.44956
-4.23696
-4.01833
-3.79384
-3.56364
-3.3279
-3.08681
-2.84057
-2.58938
-2.33347
-2.07306
-1.8084
-1.53973
-1.26733
-0.991468
-0.712425
-0.430468
-0.145892
0.140983
0.42985
0.720472
1.01257
1.30576
1.59972
1.89418
2.18883
2.48336
2.77748
3.07089
3.3633
3.65441
3.94395
4.23163
4.51719
4.80038
5.08093
5.35862
5.6332
5.90447
6.17223
6.43627
6.69641
6.95249
7.20434
7.45182
7.69478
7.9331
8.16665
8.39533
8.61902
8.83764
9.0511
9.25933
9.46226
9.65983
9.85199
10.0387
10.2198
10.3954
10.5653
10.7295
10.8877
11.0399
11.1857
11.3249
11.4565
11.581
11.6926
11.8086
11.8491
-6.74178
-6.74556
-6.75142
-6.75701
-6.76172
-6.76583
-6.76958
-6.77312
-6.7766
-6.78015
-6.78387
-6.78786
-6.79219
-6.79693
-6.80214
-6.80787
-6.81415
-6.82103
-6.82855
-6.83673
-6.84559
-6.85518
-6.8655
-6.87659
-6.88844
-6.90108
-6.91452
-6.92876
-6.94381
-6.95967
-6.97635
-6.99383
-7.01212
-7.03119
-7.05105
-7.07167
-7.09304
-7.11515
-7.13797
-7.1615
-7.1857
-7.21052
-7.23594
-7.26192
-7.2884
-7.31536
-7.34273
-7.37046
-7.3985
-7.42676
-7.4552
-7.48375
-7.51233
-7.54088
-7.56931
-7.59752
-7.62541
-7.65287
-7.67979
-7.70605
-7.73152
-7.75607
-7.77957
-7.80186
-7.8228
-7.84223
-7.86
-7.87594
-7.88988
-7.90164
-7.91105
-7.91793
-7.92209
-7.92335
-7.92151
-7.91639
-7.90779
-7.89553
-7.87941
-7.85924
-7.83484
-7.80601
-7.77257
-7.73435
-7.69117
-7.64285
-7.58924
-7.53016
-7.46548
-7.39506
-7.31875
-7.23641
-7.14794
-7.05321
-6.95214
-6.84463
-6.73061
-6.61
-6.48277
-6.34885
-6.20824
-6.0609
-5.90685
-5.74607
-5.57861
-5.4045
-5.22379
-5.03654
-4.84284
-4.64278
-4.43647
-4.22403
-4.0056
-3.78133
-3.55137
-3.31591
-3.07511
-2.82919
-2.57834
-2.32278
-2.06275
-1.79848
-1.53024
-1.25827
-0.98287
-0.704271
-0.42277
-0.138671
0.147699
0.436071
0.72623
1.01783
1.31048
1.60392
1.89786
2.19199
2.48602
2.77964
3.07255
3.36447
3.65511
3.94418
4.23142
4.51654
4.7993
5.07944
5.35673
5.63094
5.90185
6.16926
6.43298
6.69282
6.94862
7.20021
7.44746
7.69021
7.92833
8.16172
8.39025
8.61382
8.83234
9.04571
9.25387
9.45675
9.65428
9.84641
10.0331
10.2142
10.3897
10.5596
10.7236
10.8816
11.0334
11.1788
11.3172
11.4479
11.5711
11.6812
11.7953
11.8337
-6.75378
-6.75717
-6.7624
-6.76735
-6.77147
-6.77499
-6.77816
-6.78113
-6.78407
-6.78709
-6.7903
-6.79382
-6.7977
-6.80202
-6.80683
-6.81219
-6.81814
-6.8247
-6.83192
-6.83982
-6.84842
-6.85776
-6.86786
-6.87872
-6.89038
-6.90283
-6.91609
-6.93018
-6.94508
-6.9608
-6.97734
-6.99469
-7.01287
-7.03185
-7.05164
-7.07221
-7.09355
-7.11562
-7.13842
-7.16191
-7.18606
-7.21083
-7.23617
-7.26205
-7.28841
-7.31522
-7.34242
-7.36996
-7.39777
-7.4258
-7.45397
-7.48224
-7.51053
-7.53877
-7.56686
-7.5947
-7.62219
-7.64923
-7.6757
-7.70148
-7.72645
-7.75048
-7.77343
-7.79518
-7.81555
-7.83442
-7.85161
-7.86696
-7.88031
-7.89148
-7.9003
-7.90659
-7.91016
-7.91083
-7.90842
-7.90273
-7.89357
-7.88076
-7.8641
-7.84341
-7.81849
-7.78917
-7.75526
-7.71657
-7.67295
-7.62422
-7.57021
-7.51078
-7.44576
-7.37501
-7.29839
-7.21577
-7.12704
-7.03209
-6.93082
-6.82314
-6.70898
-6.58827
-6.46095
-6.32698
-6.18634
-6.03902
-5.885
-5.7243
-5.55695
-5.38297
-5.20242
-5.01537