/*--------------------------------*- C++ -*----------------------------------*\
  =========                 |
  \\      /  F ield         | OpenFOAM: The Open Source CFD Toolbox
   \\    /   O peration     | Website:  https://openfoam.org
    \\  /    A nd           | Version:  8
     \\/     M anipulation  |
\*---------------------------------------------------------------------------*/
/*   Windows 32 and 64 bit porting by blueCAPE: http://www.bluecape.com.pt   *\
|  Based on Windows porting (2.0.x v4) by Symscape: http://www.symscape.com   |
\*---------------------------------------------------------------------------*/
FoamFile
{
    version     2.0;
    format      ascii;
    class       surfaceScalarField;
    location    "288";
    object      phi;
}
// * * * * * * * * * * * * * * * * * * * * * * * * * * * * * * * * * * * * * //

dimensions      [0 3 -1 0 0 0 0];

internalField   nonuniform List<scalar> 
24170
(
3.12901e-06
5.93999e-08
3.04663e-06
8.23767e-08
2.97354e-06
7.3088e-08
2.90492e-06
6.8626e-08
2.8406e-06
6.43185e-08
2.78329e-06
5.73076e-08
2.73398e-06
4.93061e-08
2.69205e-06
4.19294e-08
2.65641e-06
3.56444e-08
2.626e-06
3.04071e-08
2.59985e-06
2.6147e-08
2.57713e-06
2.2722e-08
2.55718e-06
1.99506e-08
2.53943e-06
1.77501e-08
2.52354e-06
1.58825e-08
2.50849e-06
1.505e-08
2.49499e-06
1.34989e-08
1.75879e-08
2.4774e-06
3.45306e-06
2.35847e-08
3.45701e-06
7.84355e-08
3.45055e-06
7.9547e-08
3.4391e-06
8.0079e-08
3.42432e-06
7.9091e-08
3.40708e-06
7.45522e-08
3.38787e-06
6.85135e-08
3.36736e-06
6.24412e-08
3.34623e-06
5.67738e-08
3.32507e-06
5.15669e-08
3.30436e-06
4.68514e-08
3.28439e-06
4.26924e-08
3.26535e-06
3.899e-08
3.24729e-06
3.58115e-08
3.23029e-06
3.28886e-08
3.21433e-06
3.10039e-08
3.19973e-06
2.8103e-08
2.91358e-08
3.18818e-06
3.66816e-06
1.79411e-08
3.6792e-06
6.73921e-08
3.68543e-06
7.33159e-08
3.68947e-06
7.60398e-08
3.69108e-06
7.74865e-08
3.69012e-06
7.551e-08
3.68699e-06
7.16392e-08
3.68217e-06
6.7268e-08
3.67603e-06
6.2907e-08
3.66892e-06
5.86827e-08
3.6611e-06
5.46689e-08
3.65283e-06
5.09619e-08
3.64429e-06
4.7526e-08
3.63566e-06
4.44443e-08
3.62699e-06
4.1557e-08
3.61869e-06
3.9301e-08
3.61015e-06
3.66422e-08
3.55801e-08
3.60371e-06
3.92585e-06
1.74798e-08
3.93592e-06
5.73197e-08
3.94258e-06
6.66611e-08
3.94812e-06
7.04939e-08
3.95255e-06
7.30649e-08
3.9555e-06
7.25525e-08
3.95718e-06
6.99581e-08
3.95783e-06
6.66197e-08
3.95764e-06
6.3102e-08
3.95675e-06
5.95731e-08
3.9553e-06
5.61194e-08
3.95341e-06
5.28483e-08
3.95118e-06
4.97562e-08
3.94871e-06
4.69125e-08
3.94604e-06
4.42293e-08
3.94343e-06
4.19103e-08
3.94056e-06
3.95069e-08
3.76189e-08
3.93852e-06
4.2082e-06
1.64064e-08
4.21599e-06
4.95314e-08
4.22169e-06
6.09586e-08
4.2268e-06
6.53825e-08
4.23156e-06
6.83087e-08
4.23554e-06
6.85709e-08
4.23872e-06
6.67777e-08
4.24121e-06
6.41277e-08
4.24312e-06
6.11921e-08
4.24454e-06
5.81564e-08
4.24554e-06
5.51151e-08
4.24622e-06
5.21733e-08
4.24662e-06
4.93526e-08
4.24683e-06
4.67047e-08
4.24687e-06
4.41859e-08
4.2469e-06
4.188e-08
4.24682e-06
3.95873e-08
3.74304e-08
4.24701e-06
4.51071e-06
1.47826e-08
4.51689e-06
4.33552e-08
4.52214e-06
5.57054e-08
4.52696e-06
6.05594e-08
4.53168e-06
6.3588e-08
4.53594e-06
6.43118e-08
4.53963e-06
6.30914e-08
4.54281e-06
6.09511e-08
4.54555e-06
5.8451e-08
4.54791e-06
5.57884e-08
4.54996e-06
5.30678e-08
4.55175e-06
5.0387e-08
4.55331e-06
4.77851e-08
4.55472e-06
4.52994e-08
4.55599e-06
4.29116e-08
4.55723e-06
4.0647e-08
4.5584e-06
3.84104e-08
3.61829e-08
4.55965e-06
4.83433e-06
1.31713e-08
4.83963e-06
3.80539e-08
4.84476e-06
5.05756e-08
4.84947e-06
5.58489e-08
4.85411e-06
5.89462e-08
4.85844e-06
5.99835e-08
4.86233e-06
5.92061e-08
4.86581e-06
5.74704e-08
4.86894e-06
5.53173e-08
4.87177e-06
5.29553e-08
4.87434e-06
5.0497e-08
4.8767e-06
4.80339e-08
4.87887e-06
4.56154e-08
4.88089e-06
4.32702e-08
4.88281e-06
4.09937e-08
4.88467e-06
3.87863e-08
4.88648e-06
3.65973e-08
3.43818e-08
4.88829e-06
5.18105e-06
1.17037e-08
5.18576e-06
3.33442e-08
5.19076e-06
4.55685e-08
5.19542e-06
5.11907e-08
5.20002e-06
5.43519e-08
5.20439e-06
5.56137e-08
5.20839e-06
5.51973e-08
5.21206e-06
5.38047e-08
5.21543e-06
5.19469e-08
5.21854e-06
4.98432e-08
5.22143e-06
4.76114e-08
5.22412e-06
4.53396e-08
5.22665e-06
4.3082e-08
5.22906e-06
4.08648e-08
5.23136e-06
3.86903e-08
5.2336e-06
3.65521e-08
5.23577e-06
3.44203e-08
3.22591e-08
5.2379e-06
5.55269e-06
1.03472e-08
5.55689e-06
2.91443e-08
5.5617e-06
4.07565e-08
5.56632e-06
4.65755e-08
5.57089e-06
4.97789e-08
5.57531e-06
5.11982e-08
5.57942e-06
5.10802e-08
5.58324e-06
4.999e-08
5.58679e-06
4.83961e-08
5.59011e-06
4.65252e-08
5.59322e-06
4.44989e-08
5.59616e-06
4.24035e-08
5.59894e-06
4.02949e-08
5.60161e-06
3.82005e-08
5.60417e-06
3.61274e-08
5.60665e-06
3.40705e-08
5.60906e-06
3.20114e-08
2.99331e-08
5.61138e-06
5.95104e-06
9.08298e-09
5.95479e-06
2.53937e-08
5.95937e-06
3.6179e-08
5.96393e-06
4.20141e-08
5.96848e-06
4.5224e-08
5.97294e-06
4.67442e-08
5.97715e-06
4.68658e-08
5.9811e-06
4.60416e-08
5.98481e-06
4.46873e-08
5.9883e-06
4.30316e-08
5.9916e-06
4.1198e-08
5.99473e-06
3.92711e-08
5.99772e-06
3.73074e-08
6.00058e-06
3.53369e-08
6.00334e-06
3.33705e-08
6.006e-06
3.14082e-08
6.00857e-06
2.94402e-08
2.74654e-08
6.01104e-06
6.37798e-06
7.91083e-09
6.38135e-06
2.20274e-08
6.38568e-06
3.18464e-08
6.39017e-06
3.75229e-08
6.3947e-06
4.06927e-08
6.39918e-06
4.22637e-08
6.40348e-06
4.25666e-08
6.40755e-06
4.19701e-08
6.41141e-06
4.08331e-08
6.41506e-06
3.93776e-08
6.41853e-06
3.77276e-08
6.42184e-06
3.59652e-08
6.425e-06
3.41471e-08
6.42803e-06
3.23052e-08
6.43094e-06
3.04551e-08
6.43375e-06
2.86018e-08
6.43645e-06
2.67427e-08
2.4889e-08
6.43902e-06
5.74176e-06
6.98384e-09
5.74435e-06
1.9442e-08
5.74782e-06
2.83737e-08
5.75155e-06
3.37907e-08
5.75536e-06
3.68849e-08
5.75916e-06
3.84653e-08
5.76284e-06
3.88774e-08
5.76637e-06
3.84416e-08
5.76974e-06
3.74707e-08
5.77294e-06
3.61738e-08
5.77599e-06
3.46727e-08
5.77891e-06
3.30481e-08
5.7817e-06
3.13549e-08
5.78438e-06
2.96277e-08
5.78695e-06
2.78843e-08
5.78942e-06
2.61346e-08
5.79178e-06
2.43803e-08
2.26412e-08
5.79403e-06
6.99914e-06
5.99941e-09
7.00188e-06
1.6706e-08
7.00564e-06
2.46059e-08
7.00981e-06
2.96192e-08
7.01414e-06
3.25592e-08
7.0185e-06
3.41049e-08
7.02278e-06
3.4597e-08
7.02691e-06
3.43099e-08
7.03087e-06
3.35072e-08
7.03467e-06
3.23788e-08
7.0383e-06
3.1042e-08
7.04177e-06
2.95734e-08
7.0451e-06
2.80273e-08
7.04829e-06
2.64382e-08
7.05135e-06
2.48276e-08
7.05427e-06
2.32089e-08
7.05706e-06
2.15882e-08
1.99912e-08
7.05971e-06
8.53188e-06
4.9652e-09
8.53474e-06
1.3847e-08
8.53877e-06
2.05706e-08
8.54338e-06
2.50159e-08
8.54824e-06
2.76977e-08
8.5532e-06
2.91456e-08
8.55812e-06
2.96723e-08
8.56292e-06
2.95082e-08
8.56756e-06
2.88668e-08
8.57203e-06
2.79125e-08
8.57632e-06
2.67533e-08
8.58043e-06
2.54609e-08
8.58437e-06
2.40859e-08
8.58815e-06
2.26633e-08
8.59176e-06
2.12162e-08
8.5952e-06
1.9761e-08
8.59849e-06
1.83071e-08
1.6883e-08
8.60159e-06
1.04003e-05
3.89047e-09
1.04033e-05
1.08848e-08
1.04075e-05
1.62902e-08
1.04126e-05
1.99901e-08
1.0418e-05
2.22849e-08
1.04236e-05
2.35519e-08
1.04292e-05
2.40508e-08
1.04347e-05
2.39692e-08
1.04401e-05
2.34713e-08
1.04453e-05
2.26904e-08
1.04504e-05
2.17196e-08
1.04552e-05
2.06231e-08
1.04599e-05
1.9446e-08
1.04643e-05
1.82215e-08
1.04685e-05
1.69727e-08
1.04726e-05
1.57175e-08
1.04764e-05
1.44667e-08
1.32494e-08
1.04801e-05
1.26779e-05
2.78027e-09
1.2681e-05
7.81427e-09
1.26855e-05
1.17639e-08
1.26909e-05
1.45372e-08
1.26969e-05
1.62949e-08
1.27032e-05
1.72762e-08
1.27096e-05
1.76708e-08
1.27159e-05
1.76178e-08
1.27222e-05
1.72349e-08
1.27283e-05
1.66198e-08
1.27341e-05
1.58457e-08
1.27398e-05
1.4964e-08
1.27452e-05
1.40129e-08
1.27504e-05
1.30203e-08
1.27554e-05
1.20076e-08
1.27601e-05
1.09913e-08
1.27646e-05
9.98205e-09
9.00689e-09
1.27688e-05
1.54543e-05
1.62408e-09
1.54576e-05
4.59007e-09
1.54624e-05
6.93506e-09
1.54683e-05
8.59857e-09
1.5475e-05
9.65538e-09
1.5482e-05
1.02307e-08
1.54892e-05
1.04338e-08
1.54965e-05
1.03487e-08
1.55037e-05
1.0046e-08
1.55107e-05
9.58577e-09
1.55176e-05
9.01488e-09
1.55242e-05
8.36834e-09
1.55305e-05
7.67261e-09
1.55366e-05
6.94818e-09
1.55424e-05
6.21115e-09
1.55479e-05
5.47466e-09
1.55531e-05
4.74701e-09
4.0513e-09
1.55581e-05
1.88389e-05
3.82087e-10
1.88424e-05
1.08842e-09
1.88477e-05
1.63105e-09
1.88543e-05
1.98474e-09
1.88618e-05
2.17037e-09
1.88698e-05
2.21576e-09
1.88781e-05
2.14275e-09
1.88865e-05
1.97122e-09
1.88948e-05
1.72147e-09
1.8903e-05
1.41208e-09
1.89109e-05
1.05862e-09
1.89186e-05
6.7408e-10
1.8926e-05
2.69637e-10
1.89331e-05
-1.45137e-10
1.89399e-05
-5.62077e-10
1.89463e-05
-9.73801e-10
1.89525e-05
-1.37598e-09
-1.75115e-09
1.89583e-05
2.29648e-05
-1.04661e-09
2.29688e-05
-2.97923e-09
2.2975e-05
-4.56676e-09
2.29828e-05
-5.77952e-09
2.29916e-05
-6.63695e-09
2.3001e-05
-7.22526e-09
2.30108e-05
-7.63176e-09
2.30207e-05
-7.911e-09
2.30305e-05
-8.09945e-09
2.30402e-05
-8.22826e-09
2.30495e-05
-8.3209e-09
2.30586e-05
-8.39178e-09
2.30673e-05
-8.44859e-09
2.30757e-05
-8.49565e-09
2.30836e-05
-8.53484e-09
2.30912e-05
-8.56637e-09
2.30985e-05
-8.59081e-09
-8.59761e-09
2.31053e-05
1.68118e-05
-2.16789e-09
1.6815e-05
-6.14614e-09
1.68198e-05
-9.39062e-09
1.68258e-05
-1.17687e-08
1.68325e-05
-1.33383e-08
1.68396e-05
-1.43272e-08
1.68469e-05
-1.49231e-08
1.68542e-05
-1.52293e-08
1.68614e-05
-1.5325e-08
1.68685e-05
-1.52817e-08
1.68753e-05
-1.51526e-08
1.68819e-05
-1.49699e-08
1.68882e-05
-1.47549e-08
1.68942e-05
-1.45207e-08
1.69e-05
-1.42767e-08
1.69054e-05
-1.40269e-08
1.69106e-05
-1.37753e-08
-1.35149e-08
1.69155e-05
1.46356e-05
-3.24481e-09
1.46387e-05
-9.22934e-09
1.46434e-05
-1.40991e-08
1.46492e-05
-1.75046e-08
1.46554e-05
-1.96155e-08
1.4662e-05
-2.08816e-08
1.46687e-05
-2.15729e-08
1.46752e-05
-2.18254e-08
1.46817e-05
-2.17699e-08
1.46879e-05
-2.1523e-08
1.46939e-05
-2.116e-08
1.46997e-05
-2.07259e-08
1.47052e-05
-2.02504e-08
1.47104e-05
-1.97551e-08
1.47154e-05
-1.92529e-08
1.47201e-05
-1.87517e-08
1.47246e-05
-1.82562e-08
-1.77626e-08
1.47289e-05
1.27411e-05
-4.25332e-09
1.27443e-05
-1.23537e-08
1.27491e-05
-1.89247e-08
1.27547e-05
-2.31437e-08
1.27607e-05
-2.55876e-08
1.27668e-05
-2.703e-08
1.2773e-05
-2.77338e-08
1.2779e-05
-2.7848e-08
1.27848e-05
-2.758e-08
1.27904e-05
-2.70948e-08
1.27957e-05
-2.64821e-08
1.28008e-05
-2.57935e-08
1.28056e-05
-2.50656e-08
1.28102e-05
-2.43246e-08
1.28145e-05
-2.35856e-08
1.28186e-05
-2.28572e-08
1.28225e-05
-2.2144e-08
-2.14436e-08
1.28262e-05
1.10918e-05
-5.09596e-09
1.1095e-05
-1.55725e-08
1.11001e-05
-2.40457e-08
1.11057e-05
-2.87619e-08
1.11115e-05
-3.13152e-08
1.11173e-05
-3.28345e-08
1.1123e-05
-3.34515e-08
1.11285e-05
-3.3348e-08
1.11337e-05
-3.28266e-08
1.11387e-05
-3.20845e-08
1.11434e-05
-3.12136e-08
1.11479e-05
-3.02704e-08
1.11522e-05
-2.92981e-08
1.11562e-05
-2.83251e-08
1.11599e-05
-2.7367e-08
1.11635e-05
-2.64316e-08
1.11669e-05
-2.55233e-08
-2.46395e-08
1.11701e-05
9.65582e-06
-5.70197e-09
9.65924e-06
-1.89938e-08
9.66458e-06
-2.93869e-08
9.67007e-06
-3.42527e-08
9.67562e-06
-3.68659e-08
9.68117e-06
-3.83849e-08
9.6865e-06
-3.8774e-08
9.69151e-06
-3.83646e-08
9.69624e-06
-3.75592e-08
9.70071e-06
-3.65521e-08
9.70492e-06
-3.54221e-08
9.70888e-06
-3.42286e-08
9.7126e-06
-3.30193e-08
9.7161e-06
-3.18237e-08
9.71939e-06
-3.06569e-08
9.72248e-06
-2.95261e-08
9.72539e-06
-2.84333e-08
-2.73748e-08
9.72813e-06
8.40532e-06
-5.67146e-09
8.40963e-06
-2.33057e-08
8.41486e-06
-3.46175e-08
8.41989e-06
-3.92747e-08
8.42524e-06
-4.22247e-08
8.43064e-06
-4.37844e-08
8.43572e-06
-4.38502e-08
8.44042e-06
-4.30602e-08
8.44477e-06
-4.19173e-08
8.44882e-06
-4.05975e-08
8.45257e-06
-3.91703e-08
8.45604e-06
-3.76981e-08
8.45925e-06
-3.62306e-08
8.46222e-06
-3.47956e-08
8.46497e-06
-3.34082e-08
8.46752e-06
-3.20746e-08
8.46988e-06
-3.07967e-08
-2.9571e-08
8.47208e-06
7.31455e-06
-2.93255e-09
7.32119e-06
-2.99462e-08
7.32673e-06
-4.01647e-08
7.33168e-06
-4.4221e-08
7.33707e-06
-4.76158e-08
7.34238e-06
-4.90977e-08
7.34725e-06
-4.87196e-08
7.35166e-06
-4.74639e-08
7.35562e-06
-4.58854e-08
7.35917e-06
-4.41428e-08
7.36232e-06
-4.23163e-08
7.3651e-06
-4.04784e-08
7.36755e-06
-3.86822e-08
7.3697e-06
-3.69517e-08
7.3716e-06
-3.53021e-08
7.37326e-06
-3.37362e-08
7.37472e-06
-3.22542e-08
-3.0847e-08
7.37599e-06
6.36245e-06
4.68439e-09
6.37189e-06
-3.93853e-08
6.37931e-06
-4.75882e-08
6.38595e-06
-5.08571e-08
6.39222e-06
-5.38924e-08
6.39753e-06
-5.44041e-08
6.40182e-06
-5.3007e-08
6.40529e-06
-5.09366e-08
6.40808e-06
-4.86768e-08
6.41026e-06
-4.6319e-08
6.41188e-06
-4.39397e-08
6.41302e-06
-4.16166e-08
6.41374e-06
-3.94002e-08
6.41409e-06
-3.73089e-08
6.41415e-06
-3.53564e-08
6.41395e-06
-3.35388e-08
6.41355e-06
-3.18572e-08
-3.0291e-08
6.413e-06
5.5412e-06
8.94758e-09
5.55032e-06
-4.8506e-08
5.55834e-06
-5.56034e-08
5.56604e-06
-5.85551e-08
5.57249e-06
-6.03493e-08
5.57681e-06
-5.87236e-08
5.57905e-06
-5.52426e-08
5.5796e-06
-5.14895e-08
5.57884e-06
-4.79164e-08
5.57705e-06
-4.45266e-08
5.57445e-06
-4.13387e-08
5.57123e-06
-3.83955e-08
5.56753e-06
-3.57053e-08
5.56348e-06
-3.32598e-08
5.55918e-06
-3.10561e-08
5.55472e-06
-2.90772e-08
5.55019e-06
-2.73245e-08
-2.57494e-08
5.54564e-06
4.86004e-06
-2.34882e-08
4.86538e-06
-5.38464e-08
4.86524e-06
-5.54555e-08
4.86216e-06
-5.54825e-08
4.85699e-06
-5.51753e-08
4.84949e-06
-5.12189e-08
4.83978e-06
-4.55414e-08
4.82838e-06
-4.00905e-08
4.8158e-06
-3.53367e-08
4.80252e-06
-3.12413e-08
4.78891e-06
-2.77333e-08
4.77527e-06
-2.47503e-08
4.76178e-06
-2.22141e-08
4.74857e-06
-2.00536e-08
4.73574e-06
-1.82226e-08
4.72335e-06
-1.66881e-08
4.71151e-06
-1.54877e-08
-1.51411e-08
4.7009e-06
4.17919e-06
4.12534e-06
4.06989e-06
4.0144e-06
3.95923e-06
3.90801e-06
3.86247e-06
3.82238e-06
3.78704e-06
3.7558e-06
3.72807e-06
3.70332e-06
3.6811e-06
3.66105e-06
3.64283e-06
3.62614e-06
3.61065e-06
3.59551e-06
1.08189e-08
-1.07983e-08
2.42297e-08
-1.33995e-08
3.41181e-08
-9.84923e-09
3.89512e-08
-4.8242e-09
3.8639e-08
3.55873e-10
3.36735e-08
4.97782e-09
2.5036e-08
8.69019e-09
1.35549e-08
1.1494e-08
4.37558e-11
1.35672e-08
-1.51234e-08
1.5174e-08
-3.15701e-08
1.6497e-08
-4.91969e-08
1.76264e-08
-6.78106e-08
1.86579e-08
-8.74525e-08
1.96337e-08
-1.07992e-07
2.05776e-08
-1.29496e-07
2.14911e-08
-1.51847e-07
2.23784e-08
-1.75086e-07
2.32319e-08
-1.99103e-07
2.40509e-08
-2.23896e-07
2.48237e-08
-2.49404e-07
2.55442e-08
-2.75513e-07
2.62011e-08
-3.02241e-07
2.67787e-08
-3.29358e-07
2.72713e-08
-3.56973e-07
2.76655e-08
-3.84765e-07
2.79741e-08
-4.12943e-07
2.81966e-08
-4.41159e-07
2.83705e-08
-4.69715e-07
2.85412e-08
-4.98643e-07
2.89917e-08
-5.28739e-07
3.002e-08
-5.61222e-07
3.24422e-08
-5.99219e-07
3.78625e-08
-6.3474e-07
3.5362e-08
-6.6546e-07
3.05619e-08
-7.01975e-07
3.63318e-08
-7.42549e-07
4.04615e-08
-7.86333e-07
4.36436e-08
-8.32234e-07
4.58459e-08
-8.78631e-07
4.63155e-08
-9.25712e-07
4.70693e-08
-9.72122e-07
4.63777e-08
-1.01396e-06
4.18485e-08
-1.05499e-06
4.10189e-08
-1.09843e-06
4.34578e-08
-1.1422e-06
4.37681e-08
-1.18614e-06
4.39485e-08
-1.23017e-06
4.40296e-08
-1.27421e-06
4.40381e-08
-1.31818e-06
4.39626e-08
-1.362e-06
4.38258e-08
-1.40565e-06
4.36404e-08
-1.44908e-06
4.34215e-08
-1.49227e-06
4.31756e-08
-1.53518e-06
4.29091e-08
-1.57781e-06
4.26232e-08
-1.62014e-06
4.232e-08
-1.66215e-06
4.19983e-08
-1.70381e-06
4.16581e-08
-1.74512e-06
4.12971e-08
-1.78604e-06
4.09143e-08
-1.82656e-06
4.05072e-08
-1.86664e-06
4.00744e-08
-1.90626e-06
3.96131e-08
-1.94539e-06
3.9122e-08
-1.98399e-06
3.85986e-08
-2.02204e-06
3.80418e-08
-2.0595e-06
3.74493e-08
-2.09632e-06
3.68203e-08
-2.13248e-06
3.61528e-08
-2.16793e-06
3.54464e-08
-2.20264e-06
3.46994e-08
-2.23656e-06
3.39116e-08
-2.26965e-06
3.30818e-08
-2.30186e-06
3.22102e-08
-2.33317e-06
3.12957e-08
-2.36351e-06
3.0339e-08
-2.39286e-06
2.93396e-08
-2.42116e-06
2.82983e-08
-2.44839e-06
2.72145e-08
-2.47448e-06
2.60893e-08
-2.49942e-06
2.49226e-08
-2.52314e-06
2.37155e-08
-2.54561e-06
2.24674e-08
-2.5668e-06
2.11799e-08
-2.58666e-06
1.98522e-08
-2.60515e-06
1.84857e-08
-2.62223e-06
1.7079e-08
-2.63786e-06
1.56319e-08
-2.652e-06
1.41416e-08
-2.66461e-06
1.26035e-08
-2.67562e-06
1.10125e-08
-2.68499e-06
9.36297e-09
-2.69264e-06
7.64704e-09
-2.6985e-06
5.85119e-09
-2.70246e-06
3.95698e-09
-2.70443e-06
1.96253e-09
-2.70438e-06
-5.143e-11
-2.70252e-06
-1.87378e-09
-2.69902e-06
-3.5012e-09
-2.69394e-06
-5.08845e-09
-2.68729e-06
-6.66435e-09
-2.67906e-06
-8.24241e-09
-2.66925e-06
-9.82512e-09
-2.65786e-06
-1.14111e-08
-2.64487e-06
-1.29998e-08
-2.6303e-06
-1.45882e-08
-2.61414e-06
-1.61759e-08
-2.5964e-06
-1.77596e-08
-2.57707e-06
-1.93394e-08
-2.55617e-06
-2.09116e-08
-2.53371e-06
-2.24765e-08
-2.50969e-06
-2.40301e-08
-2.48413e-06
-2.55729e-08
-2.45703e-06
-2.71009e-08
-2.42843e-06
-2.86146e-08
-2.39832e-06
-3.01096e-08
-2.36674e-06
-3.15863e-08
-2.3337e-06
-3.30408e-08
-2.29922e-06
-3.44738e-08
-2.26335e-06
-3.58828e-08
-2.22609e-06
-3.72678e-08
-2.18748e-06
-3.86239e-08
-2.14754e-06
-3.99513e-08
-2.10631e-06
-4.12441e-08
-2.06382e-06
-4.25048e-08
-2.02009e-06
-4.37292e-08
-1.97517e-06
-4.49209e-08
-1.92909e-06
-4.60746e-08
-1.88188e-06
-4.71929e-08
-1.83359e-06
-4.82729e-08
-1.78426e-06
-4.93132e-08
-1.73393e-06
-5.0304e-08
-1.68265e-06
-5.12536e-08
-1.63045e-06
-5.21609e-08
-1.57739e-06
-5.30246e-08
-1.5235e-06
-5.38393e-08
-1.46884e-06
-5.46072e-08
-1.41345e-06
-5.53265e-08
-1.35739e-06
-5.59983e-08
-1.30071e-06
-5.66219e-08
-1.24345e-06
-5.71974e-08
-1.18568e-06
-5.77253e-08
-1.12742e-06
-5.82045e-08
-1.06874e-06
-5.86361e-08
-1.00969e-06
-5.90187e-08
-9.50298e-07
-5.9354e-08
-8.90628e-07
-5.96411e-08
-8.30723e-07
-5.98824e-08
-7.70628e-07
-6.00771e-08
-7.10388e-07
-6.02282e-08
-6.50046e-07
-6.03349e-08
-5.89645e-07
-6.04006e-08
-5.29225e-07
-6.04248e-08
-4.68825e-07
-6.04103e-08
-4.08483e-07
-6.0357e-08
-3.48236e-07
-6.02671e-08
-2.8812e-07
-6.01398e-08
-2.28171e-07
-5.99772e-08
-1.68426e-07
-5.9778e-08
-1.08912e-07
-5.95503e-08
-4.96724e-08
-5.92777e-08
9.2002e-09
-5.89145e-08
6.77445e-08
-5.85862e-08
1.25954e-07
-5.82535e-08
1.8373e-07
-5.78193e-08
2.41076e-07
-5.73913e-08
2.98004e-07
-5.69722e-08
3.54513e-07
-5.65563e-08
4.10596e-07
-5.61306e-08
4.66227e-07
-5.56789e-08
5.21352e-07
-5.51747e-08
5.75876e-07
-5.45756e-08
6.29628e-07
-5.38046e-08
6.82291e-07
-5.27171e-08
7.33247e-07
-5.1011e-08
7.81182e-07
-4.79889e-08
8.22926e-07
-4.1798e-08
8.50349e-07
-2.74727e-08
1.76981e-08
8.3261e-07
9.13271e-09
-1.99163e-08
1.26003e-08
-1.68589e-08
1.13414e-08
-8.57146e-09
6.85207e-09
-3.28697e-10
-1.51866e-10
7.37885e-09
-9.47907e-09
1.43125e-08
-2.10725e-08
2.03051e-08
-3.4881e-08
2.53102e-08
-5.07097e-08
2.94172e-08
-6.8331e-08
3.28016e-08
-8.7473e-08
3.56595e-08
-1.08001e-07
3.81586e-08
-1.29751e-07
4.04271e-08
-1.52663e-07
4.25481e-08
-1.76643e-07
4.45733e-08
-2.0168e-07
4.65291e-08
-2.27722e-07
4.84312e-08
-2.54771e-07
5.0285e-08
-2.82802e-07
5.20943e-08
-3.11818e-07
5.38591e-08
-3.41836e-07
5.55813e-08
-3.72854e-07
5.72634e-08
-4.04957e-07
5.89111e-08
-4.38146e-07
6.05394e-08
-4.72612e-07
6.2167e-08
-5.08381e-07
6.38333e-08
-5.45745e-07
6.55894e-08
-5.84808e-07
6.7515e-08
-6.25971e-07
6.97063e-08
-6.69233e-07
7.22812e-08
-7.14528e-07
7.52707e-08
-7.60645e-07
7.85118e-08
-8.04201e-07
8.13322e-08
-8.50658e-07
8.17188e-08
-9.01335e-07
8.11432e-08
-9.47812e-07
8.27122e-08
-9.91997e-07
8.45786e-08
-1.03467e-06
8.62551e-08
-1.07629e-06
8.7424e-08
-1.11788e-06
8.78786e-08
-1.15883e-06
8.80076e-08
-1.19994e-06
8.74749e-08
-1.24408e-06
8.59923e-08
-1.2883e-06
8.52343e-08
-1.33009e-06
8.52527e-08
-1.37128e-06
8.49593e-08
-1.41187e-06
8.45498e-08
-1.45194e-06
8.40935e-08
-1.49151e-06
8.36069e-08
-1.53064e-06
8.30883e-08
-1.56935e-06
8.25373e-08
-1.60767e-06
8.19551e-08
-1.6456e-06
8.13446e-08
-1.68313e-06
8.07073e-08
-1.72027e-06
8.00438e-08
-1.75701e-06
7.93529e-08
-1.79333e-06
7.86331e-08
-1.82922e-06
7.78815e-08
-1.86466e-06
7.70949e-08
-1.89964e-06
7.62698e-08
-1.93413e-06
7.54026e-08
-1.96812e-06
7.44895e-08
-2.00157e-06
7.35266e-08
-2.03448e-06
7.25105e-08
-2.0668e-06
7.14377e-08
-2.09851e-06
7.0305e-08
-2.12958e-06
6.91096e-08
-2.15998e-06
6.78487e-08
-2.18969e-06
6.65201e-08
-2.21866e-06
6.51217e-08
-2.24687e-06
6.36518e-08
-2.27428e-06
6.21088e-08
-2.30087e-06
6.04916e-08
-2.32659e-06
5.87993e-08
-2.35141e-06
5.70314e-08
-2.37531e-06
5.51874e-08
-2.39824e-06
5.32677e-08
-2.42018e-06
5.1272e-08
-2.44109e-06
4.92013e-08
-2.46094e-06
4.70556e-08
-2.47969e-06
4.48361e-08
-2.49731e-06
4.25434e-08
-2.51378e-06
4.01788e-08
-2.52906e-06
3.7743e-08
-2.54312e-06
3.52375e-08
-2.55594e-06
3.26631e-08
-2.56748e-06
3.00214e-08
-2.57772e-06
2.73129e-08
-2.58662e-06
2.45387e-08
-2.59418e-06
2.16985e-08
-2.60037e-06
1.87921e-08
-2.60518e-06
1.58206e-08
-2.6086e-06
1.2786e-08
-2.61065e-06
9.69213e-09
-2.61135e-06
6.54524e-09
-2.61076e-06
3.36361e-09
-2.60899e-06
1.88276e-10
-2.60612e-06
-2.93089e-09
-2.60198e-06
-6.01148e-09
-2.59639e-06
-9.09966e-09
-2.58929e-06
-1.22004e-08
-2.58064e-06
-1.53125e-08
-2.57046e-06
-1.8438e-08
-2.55872e-06
-2.15747e-08
-2.54542e-06
-2.47199e-08
-2.53057e-06
-2.78698e-08
-2.51414e-06
-3.10208e-08
-2.49616e-06
-3.41694e-08
-2.47662e-06
-3.73118e-08
-2.45552e-06
-4.04447e-08
-2.43288e-06
-4.35645e-08
-2.4087e-06
-4.66678e-08
-2.38298e-06
-4.97507e-08
-2.35575e-06
-5.28102e-08
-2.32702e-06
-5.58423e-08
-2.29679e-06
-5.88439e-08
-2.26509e-06
-6.18107e-08
-2.23194e-06
-6.47392e-08
-2.19736e-06
-6.7626e-08
-2.16136e-06
-7.04686e-08
-2.12399e-06
-7.32643e-08
-2.08525e-06
-7.601e-08
-2.04519e-06
-7.87004e-08
-2.00382e-06
-8.13313e-08
-1.96117e-06
-8.38976e-08
-1.91728e-06
-8.63975e-08
-1.87219e-06
-8.88278e-08
-1.82592e-06
-9.1189e-08
-1.77851e-06
-9.3478e-08
-1.73e-06
-9.56952e-08
-1.68043e-06
-9.78371e-08
-1.62984e-06
-9.9897e-08
-1.57826e-06
-1.01865e-07
-1.52575e-06
-1.03748e-07
-1.47234e-06
-1.05547e-07
-1.41809e-06
-1.07258e-07
-1.36303e-06
-1.08873e-07
-1.30721e-06
-1.10394e-07
-1.25068e-06
-1.11819e-07
-1.1935e-06
-1.13148e-07
-1.13571e-06
-1.1438e-07
-1.07736e-06
-1.15516e-07
-1.0185e-06
-1.16556e-07
-9.59182e-07
-1.17499e-07
-8.9945e-07
-1.18346e-07
-8.39355e-07
-1.19095e-07
-7.78943e-07
-1.19748e-07
-7.18264e-07
-1.20307e-07
-6.57363e-07
-1.20772e-07
-5.96287e-07
-1.21146e-07
-5.35079e-07
-1.2143e-07
-4.73785e-07
-1.21628e-07
-4.12445e-07
-1.21741e-07
-3.511e-07
-1.21773e-07
-2.8979e-07
-1.21726e-07
-2.28552e-07
-1.21604e-07
-1.67424e-07
-1.21406e-07
-1.06439e-07
-1.21138e-07
-4.56302e-08
-1.208e-07
1.49737e-08
-1.20399e-07
7.53471e-08
-1.19941e-07
1.35469e-07
-1.19419e-07
1.95338e-07
-1.18804e-07
2.54848e-07
-1.18117e-07
3.13936e-07
-1.17363e-07
3.72648e-07
-1.16554e-07
4.30977e-07
-1.15744e-07
4.88921e-07
-1.1494e-07
5.46469e-07
-1.1413e-07
6.03605e-07
-1.13294e-07
6.60298e-07
-1.12399e-07
7.16491e-07
-1.11396e-07
7.72085e-07
-1.10199e-07
8.2691e-07
-1.08661e-07
8.8066e-07
-1.06499e-07
9.32794e-07
-1.03179e-07
9.82243e-07
-9.74725e-08
1.02733e-06
-8.69169e-08
1.06468e-06
-6.48544e-08
-1.24011e-08
1.09475e-06
7.21811e-10
-2.06275e-08
-4.77589e-09
-1.1354e-08
-1.2984e-08
-3.52058e-10
-2.2929e-08
9.61935e-09
-3.42435e-08
1.87033e-08
-4.68682e-08
2.69408e-08
-6.08572e-08
3.43039e-08
-7.63213e-08
4.07783e-08
-9.33049e-08
4.64115e-08
-1.11812e-07
5.13118e-08
-1.31764e-07
5.56224e-08
-1.5309e-07
5.94879e-08
-1.75687e-07
6.30345e-08
-1.99494e-07
6.63581e-08
-2.24441e-07
6.95284e-08
-2.505e-07
7.25903e-08
-2.77638e-07
7.55745e-08
-3.0585e-07
7.84989e-08
-3.35131e-07
8.13778e-08
-3.65483e-07
8.42201e-08
-3.96933e-07
8.70353e-08
-4.29486e-07
8.98347e-08
-4.63197e-07
9.26322e-08
-4.98068e-07
9.54458e-08
-5.34185e-07
9.82969e-08
-5.71513e-07
1.01211e-07
-6.1012e-07
1.04208e-07
-6.49861e-07
1.073e-07
-6.9063e-07
1.10473e-07
-7.32008e-07
1.13668e-07
-7.73512e-07
1.16744e-07
-8.14484e-07
1.19452e-07
-8.54655e-07
1.21452e-07
-8.95443e-07
1.2245e-07
-9.37168e-07
1.22819e-07
-9.77907e-07
1.23401e-07
-1.01744e-06
1.2408e-07
-1.05587e-06
1.2465e-07
-1.09339e-06
1.24931e-07
-1.1304e-06
1.24871e-07
-1.16694e-06
1.24554e-07
-1.20339e-06
1.23918e-07
-1.24038e-06
1.22984e-07
-1.27732e-06
1.22172e-07
-1.31355e-06
1.21487e-07
-1.34932e-06
1.20734e-07
-1.38472e-06
1.19946e-07
-1.41977e-06
1.19144e-07
-1.4545e-06
1.18333e-07
-1.48892e-06
1.17509e-07
-1.52305e-06
1.16668e-07
-1.5569e-06
1.15804e-07
-1.59047e-06
1.14914e-07
-1.62376e-06
1.13994e-07
-1.65676e-06
1.13041e-07
-1.68946e-06
1.1205e-07
-1.72185e-06
1.11016e-07
-1.75391e-06
1.09936e-07
-1.78562e-06
1.08802e-07
-1.81696e-06
1.07611e-07
-1.84792e-06
1.06356e-07
-1.87847e-06
1.05032e-07
-1.90858e-06
1.03634e-07
-1.93823e-06
1.02157e-07
-1.96739e-06
1.00596e-07
-1.99603e-06
9.89471e-08
-2.02413e-06
9.72061e-08
-2.05166e-06
9.53695e-08
-2.07858e-06
9.3434e-08
-2.10485e-06
9.13969e-08
-2.13046e-06
8.92557e-08
-2.15536e-06
8.70085e-08
-2.17953e-06
8.46537e-08
-2.20292e-06
8.21902e-08
-2.22551e-06
7.9617e-08
-2.24726e-06
7.69339e-08
-2.26813e-06
7.41409e-08
-2.2881e-06
7.12384e-08
-2.30713e-06
6.82269e-08
-2.32519e-06
6.51074e-08
-2.34224e-06
6.18812e-08
-2.35825e-06
5.85497e-08
-2.37319e-06
5.51146e-08
-2.38702e-06
5.15778e-08
-2.39973e-06
4.79416e-08
-2.41128e-06
4.42081e-08
-2.42164e-06
4.03801e-08
-2.43079e-06
3.64603e-08
-2.4387e-06
3.24516e-08
-2.44536e-06
2.83571e-08
-2.45075e-06
2.41804e-08
-2.45486e-06
1.99267e-08
-2.45768e-06
1.56033e-08
-2.45921e-06
1.12193e-08
-2.45945e-06
6.78723e-09
-2.45842e-06
2.32499e-09
-2.45609e-06
-2.14462e-09
-2.45241e-06
-6.61242e-09
-2.44733e-06
-1.11017e-08
-2.4408e-06
-1.56322e-08
-2.4328e-06
-2.01987e-08
-2.42333e-06
-2.47949e-08
-2.41236e-06
-2.9416e-08
-2.39989e-06
-3.40563e-08
-2.3859e-06
-3.87106e-08
-2.37041e-06
-4.33726e-08
-2.3534e-06
-4.80373e-08
-2.33488e-06
-5.26986e-08
-2.31485e-06
-5.73518e-08
-2.29331e-06
-6.19908e-08
-2.27027e-06
-6.66111e-08
-2.24573e-06
-7.12068e-08
-2.21972e-06
-7.57732e-08
-2.19223e-06
-8.03044e-08
-2.16328e-06
-8.47959e-08
-2.13288e-06
-8.92417e-08
-2.10106e-06
-9.36368e-08
-2.06782e-06
-9.79754e-08
-2.0332e-06
-1.02253e-07
-1.9972e-06
-1.06465e-07
-1.95986e-06
-1.10608e-07
-1.92121e-06
-1.14675e-07
-1.88125e-06
-1.18661e-07
-1.84003e-06
-1.22559e-07
-1.79758e-06
-1.26363e-07
-1.75391e-06
-1.30068e-07
-1.70907e-06
-1.33671e-07
-1.66309e-06
-1.37169e-07
-1.61601e-06
-1.40561e-07
-1.56785e-06
-1.43845e-07
-1.51867e-06
-1.47018e-07
-1.46849e-06
-1.50069e-07
-1.41736e-06
-1.52988e-07
-1.36532e-06
-1.5578e-07
-1.31241e-06
-1.58445e-07
-1.25867e-06
-1.60978e-07
-1.20415e-06
-1.63371e-07
-1.14891e-06
-1.65623e-07
-1.09297e-06
-1.67733e-07
-1.0364e-06
-1.697e-07
-9.79236e-07
-1.71523e-07
-9.21533e-07
-1.73202e-07
-8.63338e-07
-1.74737e-07
-8.04699e-07
-1.76127e-07
-7.45662e-07
-1.77372e-07
-6.86275e-07
-1.78472e-07
-6.26587e-07
-1.79429e-07
-5.66643e-07
-1.80245e-07
-5.0649e-07
-1.80921e-07
-4.46172e-07
-1.8146e-07
-3.85734e-07
-1.81866e-07
-3.25218e-07
-1.82142e-07
-2.64666e-07
-1.82293e-07
-2.04118e-07
-1.82322e-07
-1.43612e-07
-1.82233e-07
-8.31852e-08
-1.82033e-07
-2.287e-08
-1.81725e-07
3.73009e-08
-1.81312e-07
9.72927e-08
-1.80796e-07
1.57075e-07
-1.80184e-07
2.16614e-07
-1.79485e-07
2.75891e-07
-1.78698e-07
3.34898e-07
-1.77816e-07
3.93611e-07
-1.76833e-07
4.52e-07
-1.75756e-07
5.10061e-07
-1.74618e-07
5.67773e-07
-1.73461e-07
6.25122e-07
-1.72293e-07
6.82092e-07
-1.71104e-07
7.38662e-07
-1.69867e-07
7.94797e-07
-1.68539e-07
8.50442e-07
-1.67046e-07
9.05502e-07
-1.65265e-07
9.59821e-07
-1.62986e-07
1.01314e-06
-1.59822e-07
1.06501e-06
-1.55062e-07
1.11478e-06
-1.47246e-07
1.16152e-06
-1.33666e-07
1.20481e-06
-1.08148e-07
-5.68931e-08
1.2493e-06
-7.19991e-09
-1.34179e-08
-1.86941e-08
1.45292e-10
-3.15497e-08
1.25106e-08
-4.52472e-08
2.3319e-08
-5.96772e-08
3.31386e-08
-7.48834e-08
4.21484e-08
-9.09634e-08
5.03895e-08
-1.08055e-07
5.7871e-08
-1.26262e-07
6.46241e-08
-1.45664e-07
7.07158e-08
-1.66279e-07
7.6243e-08
-1.88102e-07
8.13134e-08
-2.11095e-07
8.60321e-08
-2.35222e-07
9.04878e-08
-2.60441e-07
9.47517e-08
-2.86724e-07
9.88751e-08
-3.14045e-07
1.02896e-07
-3.42382e-07
1.06838e-07
-3.71726e-07
1.10718e-07
-4.02054e-07
1.14548e-07
-4.33359e-07
1.18336e-07
-4.65606e-07
1.22086e-07
-4.98783e-07
1.25803e-07
-5.32811e-07
1.29488e-07
-5.67655e-07
1.33138e-07
-6.03166e-07
1.36745e-07
-6.39247e-07
1.40286e-07
-6.75654e-07
1.43726e-07
-7.12194e-07
1.47003e-07
-7.48555e-07
1.50029e-07
-7.8452e-07
1.52685e-07
-8.19931e-07
1.54839e-07
-8.54893e-07
1.56383e-07
-8.89776e-07
1.573e-07
-9.24735e-07
1.57749e-07
-9.59376e-07
1.58015e-07
-9.93484e-07
1.58173e-07
-1.02704e-06
1.58192e-07
-1.06013e-06
1.58019e-07
-1.0929e-06
1.57633e-07
-1.12539e-06
1.5705e-07
-1.15773e-06
1.56262e-07
-1.19006e-06
1.55312e-07
-1.22223e-06
1.54352e-07
-1.25417e-06
1.53421e-07
-1.2859e-06
1.52473e-07
-1.31746e-06
1.51507e-07
-1.34885e-06
1.50525e-07
-1.38005e-06
1.49531e-07
-1.41106e-06
1.48523e-07
-1.44189e-06
1.47494e-07
-1.47253e-06
1.4644e-07
-1.50297e-06
1.45354e-07
-1.53321e-06
1.44231e-07
-1.56323e-06
1.43062e-07
-1.59303e-06
1.41843e-07
-1.62258e-06
1.40566e-07
-1.65187e-06
1.39223e-07
-1.68088e-06
1.37808e-07
-1.70959e-06
1.36315e-07
-1.73797e-06
1.34735e-07
-1.766e-06
1.33062e-07
-1.79366e-06
1.31289e-07
-1.82091e-06
1.29411e-07
-1.84774e-06
1.27421e-07
-1.87411e-06
1.25314e-07
-1.89999e-06
1.23085e-07
-1.92536e-06
1.2073e-07
-1.95017e-06
1.18244e-07
-1.9744e-06
1.15624e-07
-1.99801e-06
1.12868e-07
-2.02098e-06
1.09972e-07
-2.04326e-06
1.06935e-07
-2.06483e-06
1.03755e-07
-2.08564e-06
1.00432e-07
-2.10568e-06
9.69644e-08
-2.12489e-06
9.33532e-08
-2.14325e-06
8.95984e-08
-2.16073e-06
8.57011e-08
-2.17729e-06
8.16627e-08
-2.19289e-06
7.74849e-08
-2.20752e-06
7.31698e-08
-2.22113e-06
6.87199e-08
-2.23369e-06
6.41381e-08
-2.24518e-06
5.94275e-08
-2.25556e-06
5.45919e-08
-2.26482e-06
4.96351e-08
-2.27292e-06
4.45616e-08
-2.27985e-06
3.93763e-08
-2.28558e-06
3.40843e-08
-2.29009e-06
2.86918e-08
-2.29337e-06
2.32062e-08
-2.2954e-06
1.76364e-08
-2.29618e-06
1.19928e-08
-2.29568e-06
6.28725e-09
-2.29389e-06
5.32608e-10
-2.29078e-06
-5.26008e-09
-2.28631e-06
-1.10903e-08
-2.28044e-06
-1.69701e-08
-2.27317e-06
-2.29062e-08
-2.26448e-06
-2.88928e-08
-2.25436e-06
-3.49219e-08
-2.2428e-06
-4.0986e-08
-2.22979e-06
-4.70769e-08
-2.21532e-06
-5.3187e-08
-2.19939e-06
-5.93083e-08
-2.182e-06
-6.54337e-08
-2.16315e-06
-7.15553e-08