/*--------------------------------*- C++ -*----------------------------------*\
  =========                 |
  \\      /  F ield         | OpenFOAM: The Open Source CFD Toolbox
   \\    /   O peration     | Website:  https://openfoam.org
    \\  /    A nd           | Version:  8
     \\/     M anipulation  |
\*---------------------------------------------------------------------------*/
/*   Windows 32 and 64 bit porting by blueCAPE: http://www.bluecape.com.pt   *\
|  Based on Windows porting (2.0.x v4) by Symscape: http://www.symscape.com   |
\*---------------------------------------------------------------------------*/
FoamFile
{
    version     2.0;
    format      ascii;
    class       volVectorField;
    location    "288";
    object      U;
}
// * * * * * * * * * * * * * * * * * * * * * * * * * * * * * * * * * * * * * //

dimensions      [0 1 -1 0 0 0 0];

internalField   nonuniform List<vector> 
12225
(
(9.85698 -0.886449 0)
(9.66665 -0.740747 0)
(9.45573 -0.429483 0)
(9.22456 -0.222216 0)
(9.00655 -0.106462 0)
(8.81447 -0.0458767 0)
(8.64763 -0.0151809 0)
(8.50548 0.000438973 0)
(8.38389 0.00837616 0)
(8.28119 0.0122584 0)
(8.19288 0.0139743 0)
(8.11683 0.0149714 0)
(8.05025 0.0153111 0)
(7.99145 0.0154991 0)
(7.93857 0.0154267 0)
(7.89247 0.0157119 0)
(7.84015 0.0151463 0)
(7.8303 0.00843532 0)
(10.0545 0.227568 0)
(10.1211 0.326911 0)
(10.1196 0.261569 0)
(10.0856 0.186536 0)
(10.0435 0.134661 0)
(9.99677 0.101105 0)
(9.94407 0.0792704 0)
(9.88536 0.0645477 0)
(9.82403 0.0542347 0)
(9.76156 0.0466406 0)
(9.70016 0.0408615 0)
(9.64041 0.0362964 0)
(9.58321 0.0326229 0)
(9.52895 0.0297246 0)
(9.47728 0.027186 0)
(9.42995 0.0261531 0)
(9.38258 0.0234188 0)
(9.34853 0.031315 0)
(10.0035 0.0579181 0)
(10.0303 0.0560058 0)
(10.0561 0.0337762 0)
(10.0704 0.0328899 0)
(10.077 0.040636 0)
(10.0779 0.046529 0)
(10.0726 0.0493389 0)
(10.0615 0.0502779 0)
(10.0463 0.0501677 0)
(10.0279 0.0494435 0)
(10.0074 0.0483861 0)
(9.98531 0.0472028 0)
(9.96227 0.0459877 0)
(9.93875 0.0448724 0)
(9.915 0.0437449 0)
(9.89185 0.0432209 0)
(9.86882 0.0420409 0)
(9.84705 0.0434908 0)
(9.99779 0.0110531 0)
(10.011 0.0266064 0)
(10.035 0.0371461 0)
(10.0525 0.0480776 0)
(10.0644 0.0554397 0)
(10.0735 0.0581669 0)
(10.0796 0.0583299 0)
(10.0825 0.05758 0)
(10.0829 0.0565211 0)
(10.0814 0.0553119 0)
(10.0784 0.0540228 0)
(10.0741 0.0527687 0)
(10.0688 0.0515418 0)
(10.0628 0.0504398 0)
(10.0562 0.0493563 0)
(10.0494 0.0486507 0)
(10.0425 0.0475952 0)
(10.0355 0.0474021 0)
(9.99935 0.00719726 0)
(10.009 0.0316517 0)
(10.0275 0.0439159 0)
(10.0418 0.0499121 0)
(10.0528 0.0535955 0)
(10.0629 0.0552137 0)
(10.0717 0.0554855 0)
(10.0784 0.0551861 0)
(10.0836 0.0546305 0)
(10.0875 0.0539107 0)
(10.0903 0.0530807 0)
(10.0923 0.0522326 0)
(10.0935 0.0513789 0)
(10.0942 0.0505872 0)
(10.0945 0.049806 0)
(10.0945 0.0491968 0)
(10.0945 0.0484191 0)
(10.0943 0.0478421 0)
(10.0003 0.00917709 0)
(10.0083 0.0311658 0)
(10.0227 0.0409351 0)
(10.035 0.045379 0)
(10.0451 0.0490171 0)
(10.0548 0.0513443 0)
(10.0638 0.0523155 0)
(10.0715 0.0525368 0)
(10.078 0.0523877 0)
(10.0836 0.0520052 0)
(10.0885 0.0514642 0)
(10.0927 0.0508496 0)
(10.0964 0.0501937 0)
(10.0997 0.0495435 0)
(10.1026 0.0488782 0)
(10.1054 0.0482567 0)
(10.1081 0.0475247 0)
(10.1107 0.0467208 0)
(10.0005 0.00894303 0)
(10.0071 0.0270797 0)
(10.0191 0.0364019 0)
(10.0302 0.0413728 0)
(10.0396 0.0453882 0)
(10.0487 0.0480437 0)
(10.0573 0.0493007 0)
(10.065 0.0497556 0)
(10.0718 0.0498102 0)
(10.078 0.0496092 0)
(10.0835 0.0492296 0)
(10.0886 0.0487456 0)
(10.0933 0.0481976 0)
(10.0976 0.0476177 0)
(10.1017 0.0469982 0)
(10.1056 0.0463509 0)
(10.1094 0.0455946 0)
(10.1131 0.0446755 0)
(10.0004 0.0079137 0)
(10.006 0.0233718 0)
(10.0161 0.0327215 0)
(10.0263 0.0380796 0)
(10.0352 0.042065 0)
(10.0436 0.0447364 0)
(10.0518 0.046133 0)
(10.0593 0.0467488 0)
(10.066 0.0469485 0)
(10.0723 0.0468758 0)
(10.0781 0.0466081 0)
(10.0834 0.0462128 0)
(10.0885 0.0457328 0)
(10.0932 0.0451921 0)
(10.0978 0.0445882 0)
(10.1021 0.0439135 0)
(10.1064 0.0431179 0)
(10.1105 0.0421401 0)
(10.0004 0.0069575 0)
(10.0051 0.0204179 0)
(10.0137 0.0294371 0)
(10.0229 0.0348357 0)
(10.0312 0.0386754 0)
(10.0392 0.0413235 0)
(10.0469 0.0428387 0)
(10.0541 0.0435919 0)
(10.0607 0.0439057 0)
(10.0669 0.0439294 0)
(10.0727 0.0437425 0)
(10.0781 0.0434084 0)
(10.0833 0.0429697 0)
(10.0882 0.0424473 0)
(10.0929 0.041841 0)
(10.0974 0.041139 0)
(10.1018 0.0403057 0)
(10.1061 0.0392991 0)
(10.0004 0.00612612 0)
(10.0043 0.0178508 0)
(10.0116 0.0262567 0)
(10.0199 0.0315521 0)
(10.0277 0.0352643 0)
(10.0352 0.037875 0)
(10.0425 0.039468 0)
(10.0494 0.040322 0)
(10.0558 0.0407203 0)
(10.0618 0.040815 0)
(10.0675 0.0406866 0)
(10.0729 0.0403952 0)
(10.0781 0.0399815 0)
(10.083 0.0394659 0)
(10.0877 0.0388507 0)
(10.0923 0.0381259 0)
(10.0966 0.0372665 0)
(10.1009 0.0362526 0)
(10.0003 0.00536562 0)
(10.0037 0.0155397 0)
(10.0099 0.0232161 0)
(10.0173 0.0283127 0)
(10.0245 0.0318815 0)
(10.0315 0.034414 0)
(10.0384 0.0360304 0)
(10.045 0.0369465 0)
(10.0513 0.0374037 0)
(10.0571 0.0375491 0)
(10.0627 0.0374631 0)
(10.068 0.0372017 0)
(10.0731 0.0368042 0)
(10.0779 0.0362912 0)
(10.0826 0.0356682 0)
(10.0871 0.0349292 0)
(10.0914 0.0340589 0)
(10.0956 0.0330543 0)
(10.0003 0.0046999 0)
(10.0032 0.0135969 0)
(10.0086 0.0205672 0)
(10.0152 0.0253976 0)
(10.0219 0.0287992 0)
(10.0286 0.031225 0)
(10.0351 0.0328209 0)
(10.0414 0.0337621 0)
(10.0474 0.0342516 0)
(10.0531 0.0344271 0)
(10.0586 0.0343671 0)
(10.0638 0.0341248 0)
(10.0688 0.0337375 0)
(10.0735 0.0332267 0)
(10.0781 0.0326004 0)
(10.0825 0.031858 0)
(10.0867 0.0309905 0)
(10.0907 0.0300088 0)
(10.0003 0.00408458 0)
(10.0028 0.0118261 0)
(10.0075 0.0180656 0)
(10.0134 0.0225536 0)
(10.0197 0.0257537 0)
(10.0259 0.0280474 0)
(10.0321 0.0295904 0)
(10.0381 0.0305298 0)
(10.0439 0.0310335 0)
(10.0495 0.031226 0)
(10.0548 0.0311829 0)
(10.0598 0.0309542 0)
(10.0647 0.0305756 0)
(10.0694 0.0300691 0)
(10.0738 0.0294454 0)
(10.0781 0.0287084 0)
(10.0822 0.0278548 0)
(10.0861 0.0269053 0)
(10.0002 0.00344899 0)
(10.0024 0.00998568 0)
(10.0064 0.0153824 0)
(10.0117 0.019403 0)
(10.0174 0.0223181 0)
(10.0232 0.0244199 0)
(10.029 0.0258596 0)
(10.0348 0.0267597 0)
(10.0403 0.0272531 0)
(10.0457 0.0274466 0)
(10.0508 0.0274101 0)
(10.0557 0.0271899 0)
(10.0604 0.0268194 0)
(10.065 0.0263207 0)
(10.0693 0.0257071 0)
(10.0734 0.0249865 0)
(10.0774 0.0241607 0)
(10.0811 0.0232572 0)
(10.0002 0.00278908 0)
(10.002 0.00807418 0)
(10.0055 0.0125279 0)
(10.0101 0.0159514 0)
(10.0153 0.0184796 0)
(10.0206 0.0203144 0)
(10.0261 0.0215868 0)
(10.0314 0.0223964 0)
(10.0367 0.0228436 0)
(10.0418 0.0230141 0)
(10.0468 0.0229687 0)
(10.0515 0.022749 0)
(10.0561 0.022385 0)
(10.0604 0.0218984 0)
(10.0646 0.0213039 0)
(10.0686 0.0206128 0)
(10.0724 0.0198305 0)
(10.076 0.0189881 0)
(10.0002 0.00210424 0)
(10.0017 0.00609391 0)
(10.0047 0.00951102 0)
(10.0088 0.0122041 0)
(10.0134 0.0142265 0)
(10.0183 0.015702 0)
(10.0233 0.0167288 0)
(10.0283 0.0173825 0)
(10.0333 0.0177344 0)
(10.0382 0.017848 0)
(10.0429 0.0177715 0)
(10.0475 0.0175397 0)
(10.0518 0.0171784 0)
(10.056 0.0167072 0)
(10.06 0.0161409 0)
(10.0639 0.0154921 0)
(10.0675 0.0147682 0)
(10.071 0.0140007 0)
(10.0002 0.00139158 0)
(10.0015 0.00403107 0)
(10.0041 0.00631587 0)
(10.0076 0.00814453 0)
(10.0118 0.00953098 0)
(10.0163 0.0105394 0)
(10.0209 0.0112301 0)
(10.0256 0.0116519 0)
(10.0303 0.0118495 0)
(10.0349 0.0118638 0)
(10.0394 0.0117282 0)
(10.0438 0.0114678 0)
(10.048 0.0111024 0)
(10.052 0.0106476 0)
(10.0558 0.0101164 0)
(10.0595 0.00952024 0)
(10.063 0.00886667 0)
(10.0663 0.00818446 0)
(10.0001 0.000634822 0)
(10.0013 0.00183418 0)
(10.0036 0.0028708 0)
(10.0068 0.00369342 0)
(10.0107 0.00430332 0)
(10.0148 0.00472289 0)
(10.0192 0.00497488 0)
(10.0236 0.00507918 0)
(10.0281 0.00505522 0)
(10.0325 0.00492138 0)
(10.0368 0.00469347 0)
(10.0409 0.0043844 0)
(10.0449 0.00400515 0)
(10.0488 0.00356529 0)
(10.0525 0.00307345 0)
(10.056 0.00253798 0)
(10.0593 0.00196421 0)
(10.0625 0.00137628 0)
(10.0001 -0.00020904 0)
(10.0012 -0.000618467 0)
(10.0034 -0.000996925 0)
(10.0065 -0.00134098 0)
(10.0102 -0.00164901 0)
(10.0143 -0.00193496 0)
(10.0185 -0.00221667 0)
(10.0228 -0.00250618 0)
(10.0271 -0.00281059 0)
(10.0313 -0.00313535 0)
(10.0355 -0.00348442 0)
(10.0395 -0.0038599 0)
(10.0434 -0.00426198 0)
(10.0471 -0.00468969 0)
(10.0507 -0.00514098 0)
(10.0541 -0.00561283 0)
(10.0573 -0.00610361 0)
(10.0603 -0.00659614 0)
(10.0001 -0.00101601 0)
(10.0013 -0.00297093 0)
(10.0037 -0.00471345 0)
(10.007 -0.00616926 0)
(10.0108 -0.00733412 0)
(10.015 -0.00826767 0)
(10.0193 -0.00903132 0)
(10.0237 -0.00966682 0)
(10.028 -0.0102084 0)
(10.0323 -0.0106871 0)
(10.0364 -0.0111277 0)
(10.0404 -0.0115463 0)
(10.0442 -0.0119539 0)
(10.0479 -0.0123575 0)
(10.0514 -0.0127619 0)
(10.0547 -0.0131689 0)
(10.0579 -0.0135809 0)
(10.0609 -0.0139865 0)
(10.0002 -0.00171185 0)
(10.0015 -0.00502535 0)
(10.0041 -0.00796121 0)
(10.0078 -0.0103233 0)
(10.012 -0.0121317 0)
(10.0164 -0.0135362 0)
(10.021 -0.014643 0)
(10.0255 -0.0155088 0)
(10.03 -0.0161904 0)
(10.0343 -0.016746 0)
(10.0385 -0.0172199 0)
(10.0425 -0.0176403 0)
(10.0464 -0.0180263 0)
(10.0501 -0.0183913 0)
(10.0535 -0.0187444 0)
(10.0569 -0.0190908 0)
(10.06 -0.0194348 0)
(10.063 -0.019769 0)
(10.0002 -0.00237271 0)
(10.0016 -0.0070557 0)
(10.0047 -0.0112068 0)
(10.009 -0.0143857 0)
(10.0137 -0.0166914 0)
(10.0185 -0.0184343 0)
(10.0233 -0.0197742 0)
(10.0281 -0.0207819 0)
(10.0328 -0.0215385 0)
(10.0373 -0.0221251 0)
(10.0416 -0.0225978 0)
(10.0456 -0.0229932 0)
(10.0495 -0.0233375 0)
(10.0532 -0.02365 0)
(10.0567 -0.0239435 0)
(10.06 -0.0242258 0)
(10.0631 -0.024502 0)
(10.0661 -0.0247678 0)
(10.0002 -0.00299131 0)
(10.0018 -0.00911209 0)
(10.0054 -0.014475 0)
(10.0105 -0.0183723 0)
(10.0159 -0.0211243 0)
(10.0211 -0.0231544 0)
(10.0263 -0.0246176 0)
(10.0314 -0.0256388 0)
(10.0362 -0.0263724 0)
(10.0409 -0.0269279 0)
(10.0452 -0.0273617 0)
(10.0494 -0.0277093 0)
(10.0533 -0.0279998 0)
(10.057 -0.0282555 0)
(10.0605 -0.0284905 0)
(10.0638 -0.028713 0)
(10.067 -0.0289285 0)
(10.0699 -0.0291344 0)
(10.0001 -0.00353661 0)
(10.0018 -0.0115639 0)
(10.0062 -0.0179067 0)
(10.0123 -0.0220114 0)
(10.0183 -0.0250853 0)
(10.024 -0.0275013 0)
(10.0296 -0.0291458 0)
(10.035 -0.0301619 0)
(10.0401 -0.0308199 0)
(10.0448 -0.0312845 0)
(10.0493 -0.0316233 0)
(10.0536 -0.0318765 0)
(10.0575 -0.0320781 0)
(10.0613 -0.0322517 0)
(10.0648 -0.0324109 0)
(10.0681 -0.0325627 0)
(10.0712 -0.0327108 0)
(10.0741 -0.0328515 0)
(9.99991 -0.00338459 0)
(10.0016 -0.0149786 0)
(10.0073 -0.0227417 0)
(10.0142 -0.0262592 0)
(10.0206 -0.0288517 0)
(10.0268 -0.0312224 0)
(10.0331 -0.0329489 0)
(10.039 -0.0340418 0)
(10.0444 -0.034746 0)
(10.0494 -0.0352138 0)
(10.054 -0.0355154 0)
(10.0583 -0.0357049 0)
(10.0622 -0.0358284 0)
(10.0659 -0.0359167 0)
(10.0693 -0.035988 0)
(10.0725 -0.0360519 0)
(10.0754 -0.0361133 0)
(10.0781 -0.0361705 0)
(9.9986 -0.000401005 0)
(9.99908 -0.0157646 0)
(10.0075 -0.0274417 0)
(10.0166 -0.0325071 0)
(10.0237 -0.0348877 0)
(10.0306 -0.0362475 0)
(10.0376 -0.0370033 0)
(10.0441 -0.0374737 0)
(10.0498 -0.0378257 0)
(10.0549 -0.038076 0)
(10.0595 -0.0382236 0)
(10.0635 -0.0382935 0)
(10.0671 -0.0383158 0)
(10.0702 -0.0383119 0)
(10.073 -0.0382967 0)
(10.0754 -0.0382786 0)
(10.0775 -0.0382614 0)
(10.0794 -0.0382429 0)
(9.99488 0.00133349 0)
(9.99287 -0.00809855 0)
(10.006 -0.0203602 0)
(10.0202 -0.0322881 0)
(10.0306 -0.0404929 0)
(10.0392 -0.0441671 0)
(10.0467 -0.0450822 0)
(10.0529 -0.0449402 0)
(10.0577 -0.0444757 0)
(10.0616 -0.0438822 0)
(10.0645 -0.0432394 0)
(10.0667 -0.0426041 0)
(10.0681 -0.0420106 0)
(10.069 -0.0414672 0)
(10.0693 -0.0409835 0)
(10.0691 -0.0405558 0)
(10.0687 -0.0401815 0)
(10.0679 -0.0398346 0)
(9.99473 -0.0305628 0)
(9.99925 -0.022876 0)
(10.0147 -0.00264161 0)
(10.0304 -0.00191772 0)
(10.0434 -0.0116691 0)
(10.0533 -0.0209347 0)
(10.0594 -0.0272935 0)
(10.0618 -0.031523 0)
(10.0615 -0.0342994 0)
(10.059 -0.0359971 0)
(10.055 -0.03693 0)
(10.0497 -0.0373644 0)
(10.0434 -0.0374906 0)
(10.0363 -0.0374285 0)
(10.0288 -0.0372683 0)
(10.0208 -0.0370653 0)
(10.0127 -0.0368842 0)
(10.0045 -0.0366937 0)
(10.0273 -0.182759 0)
(10.0763 -0.288316 0)
(10.0871 -0.247759 0)
(10.0777 -0.186524 0)
(10.0663 -0.140303 0)
(10.0537 -0.108229 0)
(10.0365 -0.0858905 0)
(10.0145 -0.0704315 0)
(9.98933 -0.0596634 0)
(9.96228 -0.0518902 0)
(9.9343 -0.0460684 0)
(9.90597 -0.0415712 0)
(9.87778 -0.0380155 0)
(9.85006 -0.0351404 0)
(9.82306 -0.0327739 0)
(9.79688 -0.0308527 0)
(9.77177 -0.0293353 0)
(9.74776 -0.028515 0)
(9.93574 0.689319 0)
(9.8686 0.609604 0)
(9.76452 0.380621 0)
(9.62662 0.217439 0)
(9.48586 0.119264 0)
(9.35716 0.0631824 0)
(9.24262 0.0315704 0)
(9.14105 0.0136102 0)
(9.05135 0.0032568 0)
(8.97236 -0.00280468 0)
(8.90244 -0.00636033 0)
(8.84024 -0.00847974 0)
(8.78453 -0.00973056 0)
(8.7344 -0.0104766 0)
(8.68896 -0.0109796 0)
(8.64761 -0.0112486 0)
(8.6094 -0.011455 0)
(8.57405 -0.0121149 0)
(0.00454906 -0.0106131 -8.32329e-19)
(0.0162499 -0.017306 7.38717e-19)
(0.0265276 -0.0152182 0)
(0.0332907 -0.00931482 0)
(0.0355549 -0.00236653 0)
(0.0330324 0.00397608 -3.9126e-19)
(0.0267988 0.00889022 0)
(0.0177009 0.0122797 0)
(0.00646356 0.014439 0)
(-0.00640492 0.0157593 0)
(-0.0205504 0.0166168 2.39603e-19)
(-0.0357603 0.0172744 0)
(-0.0519345 0.0178843 0)
(-0.0690177 0.0185012 0)
(-0.0869732 0.0191452 0)
(-0.105779 0.0198077 1.28467e-19)
(-0.125412 0.0204842 0)
(-0.145843 0.0211587 0)
(-0.167042 0.021824 0)
(-0.18896 0.0224637 0)
(-0.211571 0.0230687 0)
(-0.234797 0.0236316 0)
(-0.258595 0.0241483 0)
(-0.282864 0.0246431 7.42427e-20)
(-0.307539 0.0251561 -7.09686e-20)
(-0.332527 0.025803 6.81286e-20)
(-0.35781 0.0267667 6.57123e-20)
(-0.383369 0.0283641 0)
(-0.409194 0.0310491 0)
(-0.435382 0.0357965 -6.09221e-20)
(-0.462234 0.0430139 -6.04897e-20)
(-0.490219 0.0530733 0)
(-0.51949 0.0669242 0)
(-0.552358 0.0448691 -8.24355e-20)
(-0.586922 0.00851524 0)
(-0.615978 0.0115479 0)
(-0.651289 0.0162812 8.08076e-20)
(-0.689818 0.02255 0)
(-0.730629 0.0287296 7.38197e-20)
(-0.773485 0.0322028 1.40905e-19)
(-0.817063 0.0387134 0)
(-0.858628 0.0397357 0)
(-0.899657 0.0269335 0)
(-0.937724 0.0256559 0)
(-0.974906 0.0340085 0)
(-1.01581 0.0347942 1.14822e-19)
(-1.05639 0.0348769 1.11557e-19)
(-1.09709 0.0347506 1.08451e-19)
(-1.13782 0.0345998 0)
(-1.17858 0.0343764 -1.02753e-19)
(-1.21929 0.034108 0)
(-1.25991 0.0337988 9.77094e-20)
(-1.3004 0.0334661 9.54051e-20)
(-1.34074 0.0331147 0)
(-1.38091 0.0327515 0)
(-1.42088 0.0323778 0)
(-1.46065 0.0319958 8.73847e-20)
(-1.50019 0.031605 0)
(-1.5395 0.0312055 0)
(-1.57854 0.0307959 0)
(-1.61731 0.0303756 0)
(-1.65578 0.0299428 0)
(-1.69393 0.0294965 0)
(-1.73173 0.0290351 0)
(-1.76916 0.0285577 0)
(-1.80619 0.0280627 -7.41397e-20)
(-1.84278 0.0275495 0)
(-1.87891 0.0270169 0)
(-1.91455 0.0264643 7.06698e-20)
(-1.94965 0.0258911 6.95846e-20)
(-1.98418 0.0252968 0)
(-2.01811 0.0246809 -6.75037e-20)
(-2.05139 0.0240434 6.65025e-20)
(-2.08398 0.0233841 0)
(-2.11586 0.0227032 -6.45664e-20)
(-2.14697 0.0220006 0)
(-2.17728 0.021277 0)
(-2.20674 0.0205325 6.17933e-20)
(-2.23532 0.0197678 0)
(-2.26297 0.018983 -6.00075e-20)
(-2.28965 0.0181791 0)
(-2.31533 0.0173562 5.8254e-20)
(-2.33995 0.0165151 5.73848e-20)
(-2.36349 0.0156556 5.65183e-20)
(-2.38591 0.0147785 1.11306e-19)
(-2.40715 0.0138834 -1.09574e-19)
(-2.42719 0.01297 0)
(-2.44598 0.0120366 0)
(-2.46348 0.0110812 0)
(-2.47965 0.0100992 -1.02577e-19)
(-2.49446 0.00908481 -1.00796e-19)
(-2.50784 0.00803069 9.89988e-20)
(-2.51974 0.00692783 0)
(-2.53009 0.00576601 -9.53442e-20)
(-2.53883 0.00453957 -9.34845e-20)
(-2.54588 0.00326279 -9.16033e-20)
(-2.55116 0.00198908 0)
(-2.55454 0.000810867 0)
(-2.55594 -0.000194239 0)
(-2.55592 -0.00108544 -8.37323e-20)
(-2.55438 -0.00195166 0)
(-2.55137 -0.00280533 0)
(-2.54687 -0.00365381 7.73169e-20)
(-2.54088 -0.00449781 0)
(-2.53339 -0.00533703 0)
(-2.5244 -0.00617118 7.04065e-20)
(-2.5139 -0.0069991 0)
(-2.50188 -0.00782072 0)
(-2.48833 -0.00863482 -6.29347e-20)
(-2.47327 -0.00944152 -6.03076e-20)
(-2.45668 -0.0102395 0)
(-2.43858 -0.0110289 5.48328e-20)
(-2.41896 -0.0118085 0)
(-2.39783 -0.0125784 -4.90454e-20)
(-2.37519 -0.0133373 0)
(-2.35106 -0.0140856 -4.2922e-20)
(-2.32544 -0.0148217 -3.97265e-20)
(-2.29835 -0.015546 0)
(-2.2698 -0.0162574 0)
(-2.23981 -0.0169565 0)
(-2.20839 -0.0176425 0)
(-2.17557 -0.0183156 0)
(-2.14137 -0.0189738 0)
(-2.1058 -0.0196177 0)
(-2.06889 -0.0202454 -1.04683e-20)
(-2.03066 -0.0208585 6.28442e-21)
(-1.99114 -0.0214561 0)
(-1.95036 -0.0220405 0)
(-1.90835 -0.0226089 0)
(-1.86512 -0.0231621 0)
(-1.82072 -0.0236993 -3.35371e-20)
(-1.77518 -0.0242206 0)
(-1.72854 -0.0247254 5.42372e-20)
(-1.68084 -0.0252175 -6.51363e-20)
(-1.6321 -0.0256931 0)
(-1.58236 -0.026153 0)
(-1.53168 -0.0265973 0)
(-1.48008 -0.0270263 1.12879e-19)
(-1.42762 -0.0274402 1.25975e-19)
(-1.37433 -0.0278399 0)
(-1.32026 -0.0282256 1.53758e-19)
(-1.26545 -0.0285978 1.68513e-19)
(-1.20996 -0.0289571 -1.83893e-19)
(-1.15382 -0.0293037 0)
(-1.09709 -0.0296382 0)
(-1.03979 -0.0299608 -2.34237e-19)
(-0.981987 -0.0302725 0)
(-0.923711 -0.0305735 0)
(-0.865009 -0.0308653 0)
(-0.805925 -0.0311483 0)
(-0.7465 -0.031424 3.35568e-19)
(-0.686774 -0.0316929 3.59109e-19)
(-0.626788 -0.0319567 0)
(-0.566579 -0.0322162 4.1025e-19)
(-0.506185 -0.0324728 0)
(-0.445643 -0.0327272 0)
(-0.384986 -0.0329806 4.9913e-19)
(-0.32425 -0.0332328 0)
(-0.263469 -0.0334864 5.68521e-19)
(-0.202678 -0.0337489 0)
(-0.141908 -0.0340358 0)
(-0.0811998 -0.0343203 6.9275e-19)
(-0.0206107 -0.0344192 0)
(0.0397998 -0.0339245 7.40494e-19)
(0.10009 -0.0329992 0)
(0.160208 -0.032071 0)
(0.220112 -0.0311975 0)
(0.279797 -0.0303743 -6.71562e-19)
(0.33927 -0.0295935 0)
(0.39853 -0.0288458 6.44208e-19)
(0.457561 -0.0281209 0)
(0.516326 -0.0274051 0)
(0.574754 -0.0266784 0)
(0.632704 -0.025909 0)
(0.689972 -0.0250376 0)
(0.74593 -0.0239522 0)
(0.80027 -0.0223784 0)
(0.848096 -0.0196675 -1.13639e-18)
(0.895232 -0.0142436 0)
(0.888568 0.00303043 0)
(0.0047419 -0.0327255 1.94282e-18)
(0.0109278 -0.0336088 -1.11427e-18)
(0.0112051 -0.0213252 0)
(0.00857362 -0.0079551 3.50308e-19)
(0.00349233 0.00476005 0)
(-0.00371033 0.0159534 1.3725e-19)
(-0.0130333 0.025169 -2.51547e-19)
(-0.0243862 0.0323831 -2.32682e-19)
(-0.0376432 0.0378782 0)
(-0.052604 0.0420695 -1.99542e-19)
(-0.0690395 0.0453757 -9.24173e-20)
(-0.0867713 0.0481241 0)
(-0.10567 0.050537 0)
(-0.125641 0.0527384 0)
(-0.14662 0.0547968 0)
(-0.168565 0.0567373 -6.5227e-20)
(-0.191451 0.0585755 0)
(-0.215258 0.0603103 1.16366e-19)
(-0.239979 0.061944 0)
(-0.265603 0.0634695 0)
(-0.292142 0.0648853 -1.00985e-19)
(-0.319601 0.0661867 0)
(-0.348018 0.0673678 9.35452e-20)
(-0.377427 0.0684333 -4.54155e-20)
(-0.407914 0.0693817 4.41842e-20)
(-0.439581 0.0702349 -4.3215e-20)
(-0.47258 0.0710007 -4.25391e-20)
(-0.507076 0.0717133 0)
(-0.543277 0.0723785 0)
(-0.581334 0.0730376 4.27624e-20)
(-0.62122 0.0737442 -4.31358e-20)
(-0.662367 0.0747295 0)
(-0.70306 0.0765896 0)
(-0.746593 0.0792489 4.94782e-20)
(-0.790241 0.0824574 0)
(-0.834001 0.0864012 0)
(-0.875286 0.0891945 -4.32453e-20)
(-0.914851 0.0909969 0)
(-0.953466 0.0919256 3.95304e-20)
(-0.991587 0.0918454 -7.47817e-20)
(-1.02888 0.0912284 0)
(-1.06685 0.0906689 0)
(-1.10645 0.0900647 -1.33522e-19)
(-1.14685 0.0897593 -1.30021e-19)
(-1.18682 0.0897293 -1.26744e-19)
(-1.22519 0.0894116 6.18014e-20)
(-1.26302 0.0888353 -6.07074e-20)
(-1.3004 0.088083 -1.78068e-19)
(-1.33738 0.0872072 1.16227e-19)
(-1.374 0.0862448 5.71178e-20)
(-1.41029 0.08522 0)
(-1.44627 0.0841507 -5.50076e-20)
(-1.48195 0.0830506 5.37421e-20)
(-1.51732 0.0819274 0)
(-1.55239 0.0807864 0)
(-1.58715 0.0796292 0)
(-1.62159 0.0784563 -5.04895e-20)
(-1.6557 0.0772663 0)
(-1.68947 0.0760576 9.75631e-20)
(-1.72287 0.0748274 0)
(-1.7559 0.0735733 9.4639e-20)
(-1.78853 0.0722925 0)
(-1.82074 0.0709825 -9.18944e-20)
(-1.85251 0.0696404 0)
(-1.88381 0.0682641 8.93009e-20)
(-1.91462 0.0668514 -4.38999e-20)
(-1.94492 0.0654008 0)
(-1.97467 0.0639105 -8.56395e-20)
(-2.00384 0.0623797 -4.23533e-20)
(-2.03241 0.0608073 -4.17755e-20)
(-2.06035 0.059193 0)
(-2.08762 0.0575363 -4.04264e-20)
(-2.1142 0.0558374 -4.00912e-20)
(-2.14004 0.0540965 0)
(-2.16513 0.0523142 3.89985e-20)
(-2.18943 0.0504911 -7.67263e-20)
(-2.2129 0.0486286 0)
(-2.23551 0.0467277 -3.73842e-20)
(-2.25723 0.0447899 0)
(-2.27803 0.0428164 1.08786e-19)
(-2.29788 0.0408091 0)
(-2.31674 0.0387693 -1.05583e-19)
(-2.33459 0.0366991 -3.46993e-20)
(-2.35139 0.0345995 3.40399e-20)
(-2.3671 0.0324728 6.70056e-20)
(-2.38171 0.0303201 -6.59223e-20)
(-2.39519 0.0281433 0)
(-2.40749 0.0259433 0)
(-2.4186 0.0237209 0)
(-2.42849 0.0214755 1.84604e-19)
(-2.43714 0.0192059 6.03933e-20)
(-2.44453 0.0169111 -5.9203e-20)
(-2.45065 0.0145903 0)
(-2.4555 0.01224 -5.67741e-20)
(-2.45908 0.00985366 5.55214e-20)
(-2.46144 0.00742911 5.42568e-20)
(-2.46264 0.00499098 0)
(-2.46278 0.00261189 0)
(-2.46197 0.000379674 0)
(-2.45979 -0.00173579 4.89166e-20)
(-2.45621 -0.0038088 0)
(-2.45119 -0.00585222 -9.23668e-20)
(-2.44472 -0.00787427 -1.34114e-19)
(-2.43678 -0.00987559 8.65506e-20)
(-2.42737 -0.0118549 0)
(-2.41647 -0.0138106 4.04146e-20)
(-2.40408 -0.0157403 0)
(-2.39019 -0.0176424 7.42675e-20)
(-2.3748 -0.0195148 -3.57232e-20)
(-2.35791 -0.0213563 -3.41017e-20)
(-2.33952 -0.0231645 0)
(-2.31963 -0.0249386 -9.13643e-20)
(-2.29824 -0.0266763 5.7618e-20)
(-2.27536 -0.0283766 2.67913e-20)
(-2.251 -0.0300376 0)
(-2.22516 -0.0316583 2.31634e-20)
(-2.19786 -0.0332367 6.45135e-20)
(-2.1691 -0.0347716 0)
(-2.13889 -0.0362615 3.56337e-20)
(-2.10727 -0.0377064 3.17513e-20)
(-2.07423 -0.0391052 2.7806e-20)
(-2.03981 -0.0404575 0)
(-2.00402 -0.0417606 0)
(-1.96689 -0.0430136 0)
(-1.92842 -0.0442137 -6.09306e-21)
(-1.88866 -0.0453618 -3.15418e-21)
(-1.84761 -0.0464568 0)
(-1.80533 -0.0475008 1.59247e-21)
(-1.76182 -0.0484924 6.04761e-21)
(-1.71712 -0.0494339 0)
(-1.67127 -0.0503241 1.60698e-20)
(-1.62428 -0.0511601 3.95939e-20)
(-1.57621 -0.0519355 -2.54673e-20)
(-1.52709 -0.0526577 -2.83122e-20)
(-1.47694 -0.0533299 0)
(-1.42582 -0.0539497 0)
(-1.37375 -0.0545133 0)
(-1.32079 -0.0550236 -5.00701e-20)
(-1.26696 -0.0554805 5.30764e-20)
(-1.21233 -0.0558858 1.18582e-19)
(-1.15692 -0.05624 -6.55959e-20)
(-1.10079 -0.0565446 6.87159e-20)
(-1.04398 -0.0568007 7.62642e-20)
(-0.986533 -0.0570093 0)
(-0.928493 -0.0571714 0)
(-0.869905 -0.0572881 -9.04804e-20)
(-0.810813 -0.057361 0)
(-0.751259 -0.0573917 0)
(-0.691289 -0.0573819 2.1729e-19)
(-0.630944 -0.0573337 0)
(-0.570266 -0.0572491 1.19156e-19)
(-0.509296 -0.0571304 -1.2743e-19)
(-0.448074 -0.0569796 0)
(-0.386638 -0.0567993 1.37143e-19)
(-0.325026 -0.0565911 0)
(-0.263274 -0.0563575 0)
(-0.201416 -0.0560998 -1.58082e-19)
(-0.139486 -0.0558188 3.26429e-19)
(-0.0775172 -0.0555148 -1.70782e-19)
(-0.0155412 -0.0551888 0)
(0.0464245 -0.0548386 0)
(0.108359 -0.0544616 1.79483e-19)
(0.170257 -0.054016 0)
(0.232051 -0.0533727 1.83097e-19)
(0.293655 -0.0525589 0)
(0.355065 -0.05172 0)
(0.416311 -0.0509011 0)
(0.477387 -0.0501077 1.92263e-19)
(0.538288 -0.0493337 0)
(0.599005 -0.0485694 -1.95221e-19)
(0.659514 -0.0477999 0)
(0.719774 -0.0470045 0)
(0.779712 -0.0461479 3.96223e-19)
(0.83919 -0.0451713 -3.98487e-19)
(0.897998 -0.0439607 0)
(0.955621 -0.0423041 0)
(1.01165 -0.0396656 0)
(1.06313 -0.0350574 1.22747e-18)
(1.1132 -0.0251055 0)
(1.13997 -0.00107936 -8.52619e-19)
(0.000356085 -0.0415841 -8.01567e-22)
(-0.00161666 -0.0290605 1.08414e-18)
(-0.00763116 -0.0103734 0)
(-0.0155788 0.00691401 -4.43568e-19)
(-0.0250332 0.0225252 0)
(-0.0356855 0.0363832 0)
(-0.0475198 0.0483928 5.2742e-23)
(-0.0606269 0.0585397 1.37489e-19)
(-0.0750876 0.0669657 1.29408e-19)
(-0.0909259 0.0739406 1.2242e-19)
(-0.108106 0.0797876 0)
(-0.126557 0.0848087 0)
(-0.146202 0.0892517 -1.04489e-19)
(-0.166967 0.0932928 -1.98834e-19)
(-0.188796 0.0970512 1.89536e-19)
(-0.211649 0.100598 0)
(-0.2355 0.103981 1.73332e-19)
(-0.260336 0.107223 -8.32471e-20)
(-0.286153 0.110347 0)
(-0.312953 0.113364 1.54181e-19)
(-0.340749 0.116291 7.46e-20)
(-0.369556 0.119145 -1.44233e-19)
(-0.399402 0.121949 -7.01582e-20)
(-0.430312 0.124737 0)
(-0.462327 0.127547 1.33001e-19)
(-0.495478 0.130432 1.30282e-19)
(-0.529789 0.133442 0)
(-0.565226 0.136629 1.26596e-19)
(-0.601674 0.140015 0)
(-0.638897 0.143607 1.25223e-19)
(-0.676502 0.147303 6.27463e-20)
(-0.714015 0.150841 0)
(-0.751125 0.153672 0)
(-0.788454 0.154614 0)
(-0.826127 0.154439 0)
(-0.863656 0.155139 0)
(-0.90029 0.155966 0)
(-0.93595 0.15642 1.06522e-19)
(-0.97074 0.156139 -1.54095e-19)
(-1.0049 0.155019 0)
(-1.03857 0.153331 0)
(-1.07208 0.150895 0)
(-1.10599 0.147775 -4.24594e-23)
(-1.14028 0.145278 8.89316e-20)
(-1.1743 0.14343 1.73959e-19)
(-1.20767 0.141563 -1.7032e-19)
(-1.24069 0.139706 -8.33906e-20)
(-1.27343 0.137861 8.18757e-20)
(-1.30592 0.136017 -1.29397e-22)
(-1.33818 0.134166 7.87274e-20)
(-1.37022 0.132303 0)
(-1.40205 0.130427 7.5962e-20)
(-1.43368 0.128538 -1.50373e-22)
(-1.4651 0.126637 0)
(-1.49631 0.12472 0)
(-1.52731 0.122786 -7.10594e-20)
(-1.55807 0.120833 0)
(-1.58859 0.118854 0)
(-1.61885 0.116847 6.76551e-20)
(-1.64884 0.114807 1.33595e-19)
(-1.67853 0.11273 -6.59673e-20)
(-1.70791 0.110611 0)
(-1.73695 0.108445 6.40673e-20)
(-1.76563 0.106231 0)
(-1.79392 0.103963 6.19509e-20)
(-1.82181 0.10164 6.1376e-20)
(-1.84926 0.0992592 -1.20733e-19)
(-1.87624 0.0968184 -5.93775e-20)
(-1.90273 0.0943165 0)
(-1.9287 0.0917525 1.15741e-19)
(-1.95411 0.0891259 0)
(-1.97894 0.0864364 1.68912e-19)
(-2.00316 0.0836847 1.10935e-19)
(-2.02672 0.0808712 1.09361e-19)
(-2.04961 0.0779971 -1.07797e-19)
(-2.07178 0.0750637 1.59472e-19)
(-2.09321 0.0720729 0)
(-2.11386 0.0690268 0)
(-2.1337 0.0659275 -1.0159e-19)
(-2.15269 0.0627773 -1.50151e-19)
(-2.17081 0.0595791 0)
(-2.18802 0.0563353 4.85413e-20)
(-2.20429 0.053049 0)
(-2.21959 0.0497229 -1.40736e-19)
(-2.23389 0.0463601 -1.17549e-22)
(-2.24716 0.0429635 1.0376e-22)
(-2.25937 0.0395362 8.89723e-20)
(-2.2705 0.0360812 0)
(-2.28051 0.0326015 -8.56877e-20)
(-2.28939 0.0290998 -4.55722e-23)
(-2.29712 0.0255793 0)
(-2.30367 0.0220447 0)
(-2.30905 0.0185032 0)
(-2.31324 0.0149645 7.71078e-20)
(-2.31624 0.0114422 0)
(-2.31806 0.00795527 0)
(-2.31869 0.00452656 0)
(-2.31809 0.00116544 0)
(-2.31621 -0.00215835 0)
(-2.31299 -0.00546603 6.59051e-20)
(-2.3084 -0.00874827 0)
(-2.30242 -0.0120014 6.1762e-20)
(-2.29503 -0.0152235 5.97057e-20)
(-2.28622 -0.0184114 -5.76205e-20)
(-2.27598 -0.0215619 0)
(-2.2643 -0.0246714 -5.33623e-20)
(-2.25117 -0.0277364 0)
(-2.23658 -0.0307537 -4.89856e-20)
(-2.22054 -0.0337205 4.67526e-20)
(-2.20304 -0.0366336 1.34038e-19)
(-2.18408 -0.0394905 0)
(-2.16366 -0.0422882 1.2026e-19)
(-2.14179 -0.0450245 3.81905e-20)
(-2.11846 -0.0476966 0)
(-2.0937 -0.0503022 6.61984e-20)
(-2.0675 -0.052839 6.1354e-20)
(-2.03987 -0.0553046 -8.42835e-20)
(-2.01083 -0.0576965 0)
(-1.98038 -0.060013 -2.28164e-20)
(-1.94855 -0.062253 -2.02693e-20)
(-1.91535 -0.0644152 -5.39983e-20)
(-1.8808 -0.0664978 0)
(-1.84491 -0.0684982 0)
(-1.80771 -0.0704136 0)
(-1.76921 -0.0722419 -8.17298e-21)
(-1.72945 -0.0739821 0)
(-1.68845 -0.075634 0)
(-1.64622 -0.0771983 -9.90273e-22)
(-1.60282 -0.0786756 -3.74733e-21)
(-1.55825 -0.0800667 0)
(-1.51255 -0.0813708 0)
(-1.46576 -0.082584 -2.42637e-20)
(-1.4179 -0.0837019 0)
(-1.36901 -0.084729 3.56197e-20)
(-1.31913 -0.0856687 4.01078e-20)
(-1.2683 -0.0865195 0)
(-1.21654 -0.0872783 0)
(-1.16391 -0.0879467 -5.73919e-20)
(-1.11045 -0.0885258 -1.29778e-21)
(-1.05619 -0.0890174 -1.31159e-21)
(-1.00118 -0.0894231 0)
(-0.945459 -0.0897447 -1.62864e-19)
(-0.889078 -0.0899836 0)
(-0.832076 -0.0901416 0)
(-0.774497 -0.0902204 0)
(-0.716384 -0.0902218 1.05771e-19)
(-0.65778 -0.0901482 0)
(-0.598728 -0.0900022 -2.3254e-19)
(-0.539271 -0.0897863 -1.23611e-19)
(-0.479451 -0.0895038 0)
(-0.419309 -0.0891578 -1.35517e-19)
(-0.358885 -0.0887516 0)
(-0.298218 -0.0882882 0)
(-0.237346 -0.0877716 -4.57223e-19)
(-0.176306 -0.0872042 3.15728e-19)
(-0.115133 -0.0865889 0)
(-0.0538605 -0.0859285 3.39371e-19)
(0.00748212 -0.0852276 -1.76193e-19)
(0.0688648 -0.0844885 0)
(0.130255 -0.0837115 0)
(0.191621 -0.0828933 0)
(0.252938 -0.0820366 -5.6581e-19)
(0.314198 -0.0811408 0)
(0.375388 -0.0802081 -1.95469e-19)
(0.436476 -0.0792431 0)
(0.497448 -0.0782627 0)
(0.558297 -0.0772896 0)
(0.619004 -0.0763276 0)
(0.679558 -0.0753709 0)
(0.73994 -0.0744078 0)
(0.800127 -0.0734187 -4.26881e-19)
(0.860075 -0.0723733 0)
(0.919713 -0.0712198 -2.19131e-19)
(0.978913 -0.0698701 6.61786e-19)
(1.03748 -0.0681618 0)
(1.09501 -0.0657904 0)
(1.15117 -0.0621067 -4.53507e-19)
(1.20405 -0.0558611 -4.60402e-19)
(1.25664 -0.0440409 4.65822e-19)
(1.29666 -0.0191322 4.79979e-19)
(-0.00460851 -0.0339939 -2.98737e-18)
(-0.0123311 -0.0123293 -1.30504e-18)
(-0.022281 0.0097405 -4.73066e-19)
(-0.0338098 0.0291341 -1.68626e-19)
(-0.0463401 0.0464894 0)
(-0.0595411 0.0620493 2.44123e-19)
(-0.0734529 0.0758759 -1.11587e-19)
(-0.0882087 0.0880074 0)
(-0.10393 0.0985473 -9.84811e-20)
(-0.120703 0.107678 0)
(-0.138571 0.115635 1.78508e-19)
(-0.157539 0.122661 0)
(-0.177587 0.128981 8.17036e-20)
(-0.19868 0.134772 1.56682e-19)
(-0.220787 0.14017 -1.50467e-19)
(-0.243876 0.145271 0)
(-0.267924 0.150141 -1.3945e-19)
(-0.292915 0.154823 0)
(-0.318834 0.159351 0)
(-0.345669 0.163744 -1.25964e-19)
(-0.373411 0.168024 0)
(-0.40204 0.172207 1.69979e-22)
(-0.431536 0.176312 0)
(-0.461862 0.180356 0)
(-0.492967 0.184354 -2.19843e-22)
(-0.524776 0.188314 -1.06766e-19)
(-0.557183 0.192225 -1.04133e-19)
(-0.590036 0.196057 -1.02154e-19)
(-0.623136 0.199733 0)
(-0.656252 0.203128 -1.96503e-19)
(-0.689147 0.206051 0)
(-0.721668 0.208253 -9.48473e-20)
(-0.75381 0.209463 0)
(-0.785781 0.209514 0)
(-0.81773 0.208773 8.84894e-20)
(-0.849552 0.207932 0)
(-0.881014 0.207027 -8.35496e-20)
(-0.91202 0.205928 -2.14636e-23)
(-0.942603 0.204498 1.58296e-19)
(-0.972863 0.202686 -1.54236e-19)
(-1.00288 0.200534 0)
(-1.03275 0.197998 0)
(-1.06263 0.195142 -7.1714e-20)
(-1.09254 0.192357 0)
(-1.12231 0.189749 -6.86739e-20)
(-1.1519 0.187176 6.72772e-20)