/*--------------------------------*- C++ -*----------------------------------*\
  =========                 |
  \\      /  F ield         | OpenFOAM: The Open Source CFD Toolbox
   \\    /   O peration     | Website:  https://openfoam.org
    \\  /    A nd           | Version:  8
     \\/     M anipulation  |
\*---------------------------------------------------------------------------*/
/*   Windows 32 and 64 bit porting by blueCAPE: http://www.bluecape.com.pt   *\
|  Based on Windows porting (2.0.x v4) by Symscape: http://www.symscape.com   |
\*---------------------------------------------------------------------------*/
FoamFile
{
    version     2.0;
    format      ascii;
    class       volScalarField;
    location    "100";
    object      epsilon;
}
// * * * * * * * * * * * * * * * * * * * * * * * * * * * * * * * * * * * * * //

dimensions      [0 2 -3 0 0 0 0];

internalField   nonuniform List<scalar> 
12225
(
285.523
270.712
257.907
243.825
232.441
223.117
216.773
212.721
212.757
213.999
217.27
221
228.219
232.933
241.769
246.442
256.842
258.554
52.4869
91.9002
106.961
114.779
124.832
136.843
152.703
170.012
191.239
211.133
235.586
255.88
281.874
300.143
326.486
341.396
367.806
385.96
20.526
34.8808
44.6666
50.4826
55.3854
59.6309
64.6567
69.6813
76.3369
83.2661
91.5224
99.5031
108.378
117.37
126
136.366
143.643
156.997
16.003
19.4888
24.0765
27.5698
30.4915
32.8792
35.1518
37.3087
39.5046
41.9471
44.3546
47.2652
49.7349
53.1739
55.5568
59.5393
61.7794
66.4858
15.0386
15.7133
17.3969
19.0814
20.6368
22.0303
23.2445
24.4379
25.4447
26.6068
27.5298
28.7817
29.6532
31.0325
31.8685
33.372
34.1838
35.914
14.7897
14.8258
15.2493
15.8686
16.5663
17.2889
17.9229
18.5873
19.1196
19.7394
20.1966
20.8089
21.2183
21.8422
22.222
22.8698
23.2176
23.9587
14.7657
14.6147
14.6409
14.726
14.9345
15.2207
15.4912
15.8102
16.0712
16.385
16.6198
16.9247
17.1357
17.436
17.6268
17.9326
18.0961
18.4497
14.7686
14.5867
14.4659
14.3802
14.3676
14.3895
14.4395
14.5338
14.6185
14.7375
14.8316
14.9583
15.0498
15.1802
15.2659
15.4016
15.4739
15.6407
14.768
14.591
14.4349
14.2963
14.185
14.1044
14.0398
14.0067
13.9814
13.9787
13.9811
13.9922
14.0044
14.0313
14.0482
14.0846
14.1015
14.1601
14.7665
14.594
14.432
14.2821
14.1429
14.0219
13.9114
13.8193
13.7369
13.6697
13.6101
13.5633
13.5181
13.4874
13.4521
13.4354
13.4036
13.4043
14.7659
14.5945
14.4322
14.2803
14.1361
14.0032
13.8781
13.7643
13.658
13.5627
13.4733
13.3949
13.3195
13.2558
13.1914
13.1408
13.0841
13.0461
14.7657
14.5943
14.4321
14.2798
14.1353
13.9998
13.8714
13.7517
13.6384
13.5335
13.4338
13.3427
13.2554
13.1767
13.0999
13.0326
12.9646
12.9076
14.7657
14.5941
14.432
14.2794
14.135
13.9989
13.8698
13.7484
13.6331
13.5248
13.4218
13.3255
13.2335
13.1481
13.066
12.9903
12.917
12.8502
14.7657
14.594
14.4318
14.2791
14.1346
13.9983
13.8691
13.7472
13.6315
13.5222
13.4183
13.3202
13.2269
13.1388
13.0549
12.9758
12.9002
12.8292
14.7657
14.5938
14.4317
14.2787
14.1342
13.9977
13.8686
13.7464
13.6307
13.5211
13.4171
13.3185
13.2249
13.1361
13.0516
12.9715
12.8953
12.823
14.7657
14.5938
14.4316
14.2785
14.1339
13.9973
13.8681
13.7458
13.63
13.5203
13.4162
13.3175
13.2237
13.1348
13.0502
12.9699
12.8935
12.8208
14.7657
14.5937
14.4315
14.2783
14.1337
13.997
13.8677
13.7453
13.6295
13.5196
13.4155
13.3167
13.2229
13.1338
13.0492
12.9687
12.8922
12.8195
14.7657
14.5937
14.4314
14.2782
14.1335
13.9968
13.8674
13.745
13.6291
13.5192
13.415
13.3161
13.2222
13.1331
13.0484
12.9679
12.8913
12.8185
14.7657
14.5937
14.4314
14.2782
14.1335
13.9967
13.8673
13.7449
13.6289
13.519
13.4147
13.3158
13.2219
13.1327
13.048
12.9674
12.8908
12.8179
14.7657
14.5937
14.4314
14.2782
14.1336
13.9968
13.8675
13.745
13.6291
13.5191
13.4149
13.316
13.2222
13.1329
13.0483
12.9676
12.8911
12.8181
14.7657
14.5937
14.4315
14.2784
14.1338
13.9971
13.8678
13.7454
13.6295
13.5197
13.4155
13.3168
13.2231
13.1341
13.0496
12.9693
12.893
12.8204
14.7657
14.5937
14.4316
14.2785
14.1341
13.9975
13.8685
13.7465
13.6312
13.5221
13.4192
13.3215
13.2295
13.1421
13.0597
12.9813
12.9077
12.8372
14.7659
14.5937
14.4318
14.2788
14.1353
14.0002
13.8742
13.756
13.6464
13.5436
13.4486
13.3593
13.2772
13.1994
13.1284
13.0603
12.9991
12.9389
14.7661
14.5928
14.4329
14.2844
14.1515
14.0322
13.929
13.8376
13.7593
13.6894
13.6307
13.577
13.5328
13.4905
13.4574
13.4229
13.3987
13.3691
14.7641
14.5937
14.461
14.3604
14.3029
14.2767
14.2796
14.2939
14.3201
14.3529
14.3957
14.4343
14.4821
14.5213
14.5714
14.6082
14.6606
14.6927
14.757
14.6921
14.7579
14.9173
15.1827
15.4611
15.7473
16.012
16.2719
16.5034
16.7354
16.9378
17.1495
17.3295
17.5291
17.6914
17.8859
18.0325
14.9575
15.4344
16.5692
17.6885
18.705
19.5677
20.3366
20.9965
21.6182
22.1651
22.7168
23.2088
23.7365
24.2006
24.7274
25.1765
25.7168
26.1564
16.258
20.939
25.0148
27.7589
29.7837
31.3584
32.775
34.0573
35.3558
36.6134
37.969
39.2911
40.7506
42.1347
43.7002
45.1541
46.8558
48.3269
29.9427
47.2248
54.87
58.6728
61.6118
64.4298
67.5741
70.9729
74.7264
78.7006
82.963
87.3185
91.8672
96.4062
101.04
105.555
110.087
114.478
165.79
160.073
154.9
149.564
144.48
139.677
135.614
132.109
129.269
126.971
125.317
124.039
123.332
122.818
122.815
122.965
123.245
123.801
3.65869
2.27528
3.38413
4.36197
5.23831
6.02216
6.70955
7.2695
7.65269
7.79997
7.60773
7.53983
7.69974
7.79728
7.35479
5.59558
5.73722
6.27993
6.99243
7.677
8.90439
42.1624
49.4606
55.8594
63.0957
71.0692
79.8377
89.3373
99.579
110.475
122.016
134.103
146.725
159.772
173.236
187.011
201.1
215.403
229.936
244.608
259.446
274.37
289.416
304.514
319.705
334.922
350.209
365.505
380.854
396.201
411.586
426.96
442.357
457.732
473.113
488.459
503.794
519.081
534.335
549.526
564.663
579.722
594.702
609.593
624.375
639.056
653.601
668.026
682.287
696.421
710.373
724.207
737.853
751.403
764.768
778.064
791.189
804.284
817.243
830.23
843.114
856.084
868.996
882.057
895.069
908.238
921.301
934.346
946.911
958.505
967.672
968.79
980.712
1007
1011.54
1037.22
1042.97
1072.13
1084.9
1104.28
1117.58
1130.66
1141.86
1154.6
1173.2
1180.45
1180.78
1207.29
1214.64
1226.24
1235.76
1243.96
1245.26
1261.35
1254.69
1261.81
1266.86
1277.16
1272.73
1280.33
1274.61
1270.81
1263.61
1254.43
1243.25
1230.16
1215.09
1198.07
1178.98
1157.98
1135.09
1110.48
1084.27
1056.64
1027.3
996.707
965.103
932.712
899.777
866.512
832.945
799.589
767.089
733.966
703.86
682.079
662.241
642.78
623.535
604.606
586.035
567.896
550.276
532.826
515.7
499.381
483.679
468.379
453.542
439.254
425.608
412.635
400.278
388.497
377.309
366.698
356.641
347.116
338.11
329.586
321.527
313.869
306.636
299.6
293.118
286.099
280.458
271.804
266.792
244.042
8.05596
4.91779
4.64301
4.87273
5.2996
5.82888
6.42465
7.06185
7.72177
8.40583
9.15085
10.005
10.9878
12.0968
13.3875
15.0706
17.1145
19.3886
22.1021
25.6166
30.4752
37.4769
42.1149
46.5564
51.2131
56.0995
61.2128
66.5178
71.9847
77.5869
83.3093
89.1304
95.0409
101.024
107.075
113.181
119.341
125.544
131.794
138.082
144.412
150.78
157.19
163.641
170.124
176.633
183.17
189.731
196.316
202.92
209.544
216.183
222.836
229.498
236.168
242.839
249.511
256.178
262.836
269.481
276.11
282.717
289.298
295.849
302.365
308.843
315.276
321.663
327.997
334.277
340.497
346.663
352.767
358.817
364.806
370.745
376.625
382.463
388.25
394.003
399.709
405.389
411.026
416.634
422.183
427.678
433.069
438.33
443.375
448.142
452.565
456.837
462.642
469.166
473.962
480.427
485.37
492.072
496.948
502.186
506.625
510.883
514.893
518.899
522.688
525.022
526.262
534.555
537.318
541.23
543.908
545.826
545.799
548.963
550.115
554.157
555.392
555.538
555.734
557.91
556.134
554.745
552.439
549.37
545.65
541.252
536.161
530.369
523.839
516.594
508.595
499.867
490.444
480.367
469.623
458.315
446.521
434.315
421.773
408.974
395.96
382.836
369.752
356.526
343.614
332.159
321.362
310.856
300.55
290.461
280.612
271.025
261.735
252.638
243.591
234.844
226.419
218.271
210.406
202.837
195.59
188.684
182.108
175.849
169.904
164.268
158.931
153.882
149.112
144.609
140.365
136.356
132.597
129.011
125.734
122.456
119.79
116.677
116.787
117.216
14.4823
7.93838
6.85362
6.74928
7.00917
7.47616
8.10113
8.87486
9.80656
10.9095
12.1872
13.6496
15.3094
17.1795
19.2804
21.621
24.1357
26.809
29.7062
32.9178
36.4967
40.3646
44.2233
48.1457
52.1925
56.3727
60.622
64.927
69.3183
73.7971
78.3587
82.9949
87.7006
92.4717
97.308
102.201
107.148
112.145
117.19
122.281
127.416
132.593
137.811
143.069
148.362
153.689
159.049
164.44
169.859
175.306
180.779
186.275
191.792
197.329
202.881
208.448
214.025
219.609
225.198
230.788
236.374
241.954
247.523
253.077
258.61
264.12
269.602
275.05
280.46
285.829
291.151
296.425
301.646
306.812
311.918
316.965
321.948
326.866
331.717
336.499
341.208
345.843
350.398
354.867
359.239
363.506
367.653
371.67
375.549
379.304
382.988
386.727
390.713
394.677
398.346
402.166
405.702
409.344
412.551
415.678
418.555
421.305
423.928
426.438
428.79
430.902
433.19
436.408
438.465
440.565
442.255
443.636
444.738
446.276
447.464
449.019
449.767
449.882
449.788
449.926
448.987
447.831
446.163
443.968
441.271
438.045
434.263
429.907
424.96
419.417
413.272
406.537
399.233
391.385
383.019
374.188
364.947
355.351
345.456
335.315
324.973
314.488
303.942
293.373
282.996
273.169
263.741
254.571
245.611
236.862
228.341
220.062
212.042
204.254
196.661
189.319
182.21
175.296
168.624
162.189
156.009
150.101
144.461
139.083
133.968
129.111
124.505
120.143
116.019
112.123
108.449
104.986
101.736
98.6667
95.8315
93.1199
90.7828
88.3976
87.4492
87.296
21.7658
11.366
9.47686
9.08385
9.23102
9.68407
10.3622
11.2404
12.3163
13.5947
15.0817
16.7823
18.6941
20.8085
23.1118
25.5836
28.1949
30.9346
33.8203
36.8809
40.1325
43.5486
47.0813
50.7189
54.4556
58.2777
62.2043
66.2415
70.3733
74.5956
78.9052
83.2873
87.7327
92.2298
96.7922
101.419
106.11
110.863
115.675
120.543
125.467
130.442
135.469
140.543
145.664
150.83
156.037
161.286
166.574
171.899
177.259
182.654
188.08
193.536
199.019
204.527
210.057
215.606
221.171
226.749
232.335
237.926
243.517
249.103
254.68
260.243
265.785
271.302
276.787
282.235
287.64
292.996
298.297
303.538
308.713
313.816
318.842
323.784
328.638
333.397
338.056
342.609
347.049
351.368
355.558
359.612
363.522
367.287
370.909
374.408
377.816
381.174
384.504
387.731
390.809
393.798
396.635
399.36
401.888
404.28
406.521
408.64
410.644
412.539
414.325
416.036
417.791
419.631
421.149
422.544
423.731
424.743
425.625
426.413
427.048
427.733
427.942
427.654
427.334
426.82
425.822
424.496
422.757
420.573
417.931
414.801
411.137
406.935
402.18
396.863
390.983
384.548
377.574
370.086
362.114
353.701
344.896
335.747
326.305
316.618
306.743
296.75
286.72
276.728
266.896
257.364
248.119
239.115
230.334
221.778
213.463
205.401
197.601
190.058
182.762
175.727
168.951
162.42
156.137
150.061
144.204
138.587
133.207
128.065
123.163
118.498
114.065
109.86
105.879
102.113
98.5597
95.2102
92.0635
89.1036
86.3525
83.7703
81.4669
79.3128
77.7671
77.1633
29.3934
15.1147
12.3478
11.6535
11.6769
12.0966
12.7906
13.7138
14.8512
16.1997
17.7599
19.5302
21.5033
23.6657
25.9995
28.4851
31.1048
33.8496
36.722
39.7304
42.8797
46.1631
49.5691
53.0887
56.7162
60.4473
64.2827
68.2212
72.2575
76.3854
80.6003
84.9035
89.294
93.7719
98.3359
102.981
107.705
112.504
117.377
122.32
127.333
132.411
137.553
142.756
148.019
153.339
158.715
164.144
169.625
175.156
180.735
186.361
192.03
197.743
203.495
209.284
215.109
220.965
226.85
232.76
238.691
244.638
250.596
256.561
262.525
268.484
274.43
280.356
286.254
292.118
297.94
303.71
309.422
315.066
320.633
326.116
331.505
336.793
341.97
347.028
351.959
356.754
361.405
365.904
370.243
374.415
378.414
382.239
385.894
389.391
392.748
395.98
399.089
402.051
404.855
407.509
410.004
412.344
414.518
416.54
418.415
420.154
421.762
423.245
424.608
425.878
427.082
428.21
429.179
430.016
430.681
431.213
431.623
431.785
431.731
431.673
431.314
430.716
429.921
428.88
427.499
425.787
423.699
421.205
418.275
414.886
410.99
406.575
401.623
396.127
390.08
383.491
376.373
368.749
360.649
352.113
343.185
333.912
324.346
314.548
304.586
294.533
284.466
274.46
264.598
254.961
245.563
236.4
227.47
218.782
210.349
202.182
194.291
186.677
179.336
172.275
165.49
158.975
152.726
146.722
140.962
135.429
130.105
125.005
120.13
115.479
111.049
106.839
102.847
99.06
95.4841
92.1129
88.9428
85.9653
83.1894
80.6025
78.2565
76.1262
74.3815
73.3156
36.9219
18.9463
15.3024
14.2938
14.1866
14.5505
15.2308
16.1599
17.3099
18.6694
20.2333
21.9965
23.951
26.085
28.3842
30.8337
33.4211
36.1382
38.9823
41.9541
45.0543
48.2811
51.6311
55.1005
58.6866
62.3871
66.2012
70.1273
74.1632
78.3067
82.556
86.9103
91.369
95.9308
100.594
105.357
110.215
115.168
120.211
125.343
130.561
135.863
141.245
146.705
152.241
157.851
163.531
169.282
175.099
180.982
186.929
192.937
199.004
205.13
211.311
217.544
223.828
230.159
236.533
242.947
249.396
255.875
262.378
268.9
275.433
281.971
288.504
295.025
301.524
307.991
314.417
320.791
327.102
333.338
339.488
345.541
351.485
357.309
363
368.548
373.941
379.17
384.223
389.091
393.765
398.237
402.502
406.558
410.405
414.051
417.504
420.773
423.857
426.75
429.448
431.955
434.27
436.397
438.339
440.103
441.694
443.119
444.386
445.498
446.465
447.305
448.015
448.58
449.011
449.329
449.426
449.291
449.069
448.647
448.084
447.382
446.465
445.33
443.973
442.362
440.452
438.222
435.636
432.662
429.27
425.426
421.1
416.268
410.912
405.02
398.586
391.615
384.117
376.115
367.637
358.722
349.412
339.761
329.832
319.691
309.41
299.062
288.72
278.451
268.322
258.39
248.681
239.207
229.979
221.011
212.315
203.902
195.782
187.957
180.429
173.198
166.263
159.617
153.255
147.164
141.335
135.758
130.417
125.29
120.371
115.664
111.169
106.887
102.82
98.9582
95.3094
91.8668
88.6269
85.5845
82.7434
80.1016
77.6867
75.5054
73.6376
72.2221
44.1097
22.7011
18.2013
16.8731
16.6282
16.9227
17.5699
18.4808
19.6153
20.9545
22.4886
24.2108
26.1138
28.1887
30.4253
32.8134
35.3439
38.0103
40.8089
43.738
46.7969
49.985
53.3012
56.7445
60.3139
64.0088
67.8289
71.7737
75.8427
80.0351
84.3504
88.7881
93.3476
98.0278
102.827
107.745
112.777
117.923
123.179
128.543
134.013
139.585
145.257
151.026
156.889
162.845
168.891
175.025
181.244
187.547
193.932
200.397
206.94
213.558
220.25
227.014
233.845
240.742
247.7
254.715
261.782
268.896
276.051
283.238
290.452
297.682
304.92
312.154
319.375
326.57
333.726
340.832
347.872
354.833
361.7
368.459
375.095
381.593
387.939
394.117
400.115
405.918
411.514
416.892
422.04
426.951
431.615
436.03
440.195
444.111
447.784
451.218
454.413
457.369
460.086
462.566
464.813
466.832
468.628
470.207
471.577
472.742
473.709
474.479
475.061
475.496
475.747
475.759
475.566
475.265
474.755
474.069
473.217
472.18
470.974
469.592
468.008
466.206
464.173
461.884
459.309
456.422
453.194
449.591
445.585
441.141
436.232
430.831
424.92
418.483
411.515
404.016
395.997
387.476
378.484
369.058
359.25
349.119
338.73
328.154
317.461
306.723
296.007
285.376
274.889
264.592
254.515
244.682
235.108
225.809
216.8
208.091
199.69
191.603
183.829
176.371
169.225
162.385
155.846
149.596
143.626
137.924
132.478
127.272
122.284
117.492
112.9
108.517
104.345
100.384
96.6343
93.0936
89.7588
86.6266
83.6986
80.9763
78.4758
76.2115
74.2316
72.5515
50.7526
26.2463
20.9322
19.2874
18.9007
19.1168
19.7189
20.5978
21.7019
23.0057
24.4959
26.164
28.0038
30.0087
32.1723
34.4879
36.9496
39.5526
42.294
45.1719
48.1857
51.335
54.6199
58.0403
61.5969
65.2898
69.1199
73.0875
77.1934
81.4379
85.8213
90.3437
95.0053
99.8053
104.743
109.818
115.027
120.37
125.843
131.445
137.173
143.025
148.997
155.088
161.295
167.614
174.045
180.585
187.232
193.983
200.838
207.794
214.849
222.001
229.248
236.588
244.017
251.533
259.131
266.807
274.556
282.371
290.246
298.173
306.143
314.146
322.171
330.206
338.238
346.253
354.236
362.172
370.043
377.834
385.525
393.1
400.54
407.827
414.942
421.868
428.588
435.085
441.344
447.351
453.091
458.555
463.733
468.619
473.208
477.501
481.5
485.204
488.617
491.738
494.571
497.116
499.38
501.368
503.085
504.54
505.738
506.688
507.394
507.851
508.034
507.976
507.719
507.225
506.522
505.618
504.495
503.165
501.63
499.89
497.948
495.801
493.437
490.844
488.006
484.905
481.521
477.829
473.804
469.417
464.64
459.443
453.799
447.684
441.076
433.962
426.333
418.19
409.541
400.407
390.82
380.824
370.47
359.821
348.943
337.903
326.773
315.618
304.504
293.489
282.625
271.954
261.51
251.318
241.4
231.772
222.449
213.441
204.756
196.399
188.37
180.671
173.298
166.246
159.508
153.074
146.933
141.076
135.488
130.157
125.065
120.182
115.483
110.985
106.698
102.624
98.7645
95.1169
91.6791
88.4485
85.4255
82.6124
80.0192
77.6588
75.5655
73.6784
56.6867
29.4726
23.4064
21.4575
20.9293
21.0636
21.6148
22.4552
23.5231
24.7869
26.2299
27.8426
29.619
31.5545
33.645
35.8868
38.2764
40.8112
43.4893
46.3097
49.2721
52.3767
55.6243
59.0158
62.5524
66.2354
70.0665
74.047
78.1786
82.4626
86.9003
91.4927
96.2407
101.144
106.204
111.419
116.789
122.312
127.986
133.811
139.784
145.902
152.164
158.567
165.109
171.788
178.601
185.547
192.623
199.829
207.161
214.619
222.201
229.904
237.727
245.667
253.721
261.887
270.159
278.533
287.003
295.564
304.207
312.923
321.704
330.536
339.409
348.309
357.22
366.126
375.011
383.854
392.639
401.342
409.945
418.426
426.762
434.931
442.913
450.685
458.226
465.518
472.541
479.276
485.71
491.827
497.616
503.067
508.175
512.937
517.351
521.417
525.135
528.508
531.536
534.224
536.576
538.598
540.296
541.679
542.756
543.536
543.983
544.102
543.903
543.455
542.734
541.74
540.482
538.965
537.188
535.158
532.878
530.354
527.587
524.578
521.32
517.807
514.029
509.974
505.626
500.969
495.981
490.642
484.926
478.811
472.27
465.284
457.834
449.907
441.495
432.601
423.235
413.422
403.196
392.6
381.685
370.513
359.147
347.654
336.099
324.546
313.055
301.679
290.465
279.455
268.678
258.166
247.941
238.02
228.416
219.14
210.199
201.595
193.332
185.408
177.822
170.568
163.638
157.023
150.712
144.694
138.958
133.489
128.272
123.283
118.476
113.865
109.464
105.279
101.31
97.5568
94.0168
90.6881
87.57
84.6645
81.9773
79.5181
77.3121
75.2576
61.7932
32.2984
25.562
23.3314
22.6673
22.721
23.2201
24.0209
25.0528
26.2785
27.6782
29.2411
30.961
32.8343
34.8585
37.0317
39.3525
41.8198
44.4331
47.1925
50.0984
53.1517
56.3539
59.7067
63.2121
66.8724
70.6899
74.6672
78.8068
83.1111
87.5823
92.2225
97.0335
102.017
107.173
112.503
118.007
123.684
129.534
135.557
141.75
148.112
154.642
161.337
168.197
175.218
182.4
189.741
197.239
204.892
212.699
220.658
228.769
237.029
245.435
253.987
262.68
271.512
280.478
289.573
298.792
308.126
317.569
327.11
336.739
346.443
356.208
366.019
375.86
385.71
395.552
405.363
415.121
424.803
434.384
443.839
453.142
462.269
471.192
479.887
488.329
496.494
504.36
511.905
519.111
525.96
532.438
538.533
544.235
549.54
554.442
558.942
563.037
566.73
570.02
572.913
575.412
577.523
579.252
580.61
581.606
582.212
582.425
582.263
581.764
580.929
579.761
578.261
576.435
574.288
571.823
569.047
565.965
562.583
558.905
554.934
550.671
546.113
541.257
536.098
530.627
524.835
518.711
512.24
505.405
498.191
490.582
482.561
474.115
465.236
455.923
446.181
436.025
425.481
414.585
403.376
391.902
380.221
368.394
356.481
344.543
332.64
320.823
309.143
297.642
286.354
275.31
264.543
254.075
243.923
234.099
224.611
215.465
206.664
198.209
190.101
182.336
174.911
167.817
161.044
154.582
148.42
142.545
136.945
131.606
126.504
121.592
116.875
112.37
108.083
104.016
100.166
96.5323
93.1123
89.905
86.9115
84.1344
81.5799
79.266
77.0726
66.0016
34.6729
27.3638
24.8831
24.0934
24.074
24.5203
25.2836
26.2831
27.4766
28.8411
30.364
32.0386
33.8612
35.8302
37.9448
40.2048
42.6104
45.1622
47.8612
50.7089
53.7069
56.8577
60.1636
63.6278
67.2533
71.0436
75.0021
79.1325
83.438
87.9222
92.5882
97.4388
102.477
107.704
113.123
118.735
124.541
130.541
136.735
143.124
149.707
156.483
163.45
170.609
177.956
185.493
193.216
201.124
209.218
217.494
225.953
234.592
243.411
252.406
261.576
270.918
280.428
290.102
299.935
309.919
320.049
330.314
340.704
351.208
361.811
372.499
383.254
394.058
404.889
415.725
426.543
437.316
448.019
458.623
469.099
479.418
489.55
499.465
509.134
518.528
527.619
536.382
544.79
552.821
560.456
567.675
574.464
580.812
586.709
592.151
597.133
601.653
605.712
609.311
612.453
615.141
617.38
619.177
620.54
621.469
621.938
621.969
621.579
620.778
619.571
617.963
615.954
613.55
610.754
607.572
604.007
600.068
595.759
591.09
586.063
580.686
574.96
568.89
562.476
555.721
548.623
541.183
533.394
525.255
516.757
507.898
498.671
489.075
479.11
468.783
458.102
447.087
435.767
424.181
412.355
400.335
388.174
375.926
363.647
351.391
339.208
327.145
315.244
303.542
292.067
280.841
269.907
259.285
248.988
239.025
229.402
220.124
211.192
202.609
194.372
186.482
178.934
171.719
164.828
158.25
151.973
145.986
140.277
134.831
129.626
124.615
119.808
115.217
110.846
106.697
102.766
99.0532
95.5546
92.2692
89.197
86.3385
83.6968
81.2838
78.9756
69.2802
36.5683
28.7944
26.1005
25.1959
25.1127
25.5155
26.2475
27.2216
28.3915
29.7314
31.2267
32.8698
34.6565
36.5851
38.6552
40.8672
43.2221
45.7213
48.3667
51.1607
54.1058
57.2053
60.4628
63.8822
67.4679
71.2245
75.1562
79.2677
83.5634
88.048
92.7256
97.6007
102.677
107.959
113.449
119.151
125.067
131.2
137.551
144.12
150.91
157.919
165.149
172.597
180.265
188.151
196.254
204.573
213.108
221.857
230.821
239.996
249.382
258.976
268.777
278.78
288.983
299.38
309.966
320.734
331.675
342.78
354.037
365.434
376.955
388.583
400.3
412.085
423.915
435.764
447.606
459.413
471.155
482.799
494.314
505.666
516.822
527.747
538.408
548.773
558.809
568.485
577.775
586.65
595.087
603.066
610.568
617.578
624.086
630.084
635.566
640.53
644.973
648.897
652.305
655.199
657.584
659.463
660.843
661.721
662.09
661.962
661.341
660.238
658.66
656.606
654.079
651.08
647.612
643.677
639.282
634.431
629.131
623.391
617.218
610.621
603.609
596.191
588.377
580.178
571.605
562.668
553.375
543.741
533.774
523.486
512.889
501.992
490.811
479.361
467.655
455.716
443.578
431.258
418.794
406.235
393.628
381.018
368.451
355.968
343.61
331.413
319.41
307.629
296.09
284.799
273.807
263.139
252.802
242.8
233.138
223.817
214.84
206.206
197.913
189.965
182.356
175.078
168.121
161.473
155.123
149.061
143.276
137.751
132.461
127.374
122.501
117.849
113.418
109.209
105.22
101.446
97.8867
94.5387
91.4015
88.474
85.757
83.2576
80.8565
71.6289
37.9786
29.8556
26.9921
25.9925
25.8564
26.2247
26.9337
27.8916
29.0487
30.3767
31.8594
33.4877
35.2565
37.1637
39.2085
41.3915
43.7139
46.1777
48.7854
51.5401
54.4454
57.5056
60.7253
64.1097
67.6645
71.3965
75.3098
79.4093
83.7007
88.1896
92.8817
97.7829
102.899
108.235
113.797
119.59
125.617
131.884
138.395
145.152
152.157
159.41
166.912
174.665
182.668
190.921
199.423
208.174
217.172
226.418
235.91
245.647
255.626
265.845
276.302
286.993
297.912
309.056
320.417
331.988
343.759
355.72
367.858
380.159
392.606
405.181
417.863
430.629
443.453
456.31
469.168
481.997
494.763
507.432
519.968
532.333
544.49
556.402
568.03
579.339
590.293
600.857
611
620.691
629.904
638.614
646.802
654.449
661.542
668.073
674.031
679.415
684.222
688.453
692.109
695.193
697.707
699.656
701.044
701.87
702.131
701.831
700.955
699.532
697.562
695.04
691.968
688.341
684.162
679.43
674.15
668.324
661.961
655.066
647.652
639.727
631.308
622.407
613.047
603.246
593.029
582.418
571.442
560.133
548.52
536.635
524.515
512.176
499.622
486.852
473.956
460.972
447.95
434.948
421.962
408.982
396.045
383.187
370.443
357.844
345.42
333.197
321.199
309.447
297.952
286.691
275.782
265.209
254.966
245.053
235.473
226.225
217.31
208.724
200.458
192.531
184.937
177.665
170.705
164.045
157.672
151.582
145.762
140.193
134.849
129.724
124.82
120.138
115.678
111.437
107.414
103.604
100.005
96.6137
93.429
90.4484
87.6715
85.1008
82.6284
73.0768
38.9145
30.5632
27.5797
26.5104
26.3361
26.6823
27.38
28.3343
29.493
30.826
32.3154
33.9506
35.7257
37.6374
39.6845
41.8672
44.1866
46.645
49.2452
51.991
54.887
57.9384
61.1518
64.5324
68.0858
71.8185
75.7371
79.8488
84.1609
88.681
93.4164
98.3747
103.564
108.991
114.663
120.588
126.771
133.217
139.931
146.918
154.18
161.723
169.549
177.657
186.049
194.723
203.68
212.919
222.438
232.237
242.314
252.667
263.293
274.189
285.351
296.774
308.453
320.381
332.55
344.951
357.574
370.406
383.433
396.64
410.008
423.518
437.146
450.868
464.656
478.48
492.31
506.109
519.843
533.474
546.963
560.268
573.351
586.169
598.682
610.851
622.636
634
644.908
655.328
665.229
674.585
683.374
691.574
699.173
706.156
712.515
718.247
723.347
727.817
731.657
734.869
737.456
739.42
740.768
741.501
741.602
741.073
739.894
738.103
735.689
732.648
728.973
724.66
719.705
714.106
707.863
700.979
693.459
685.311
676.545
667.174
657.218
646.699
635.645
624.089
612.069
599.621
586.792
573.649
560.232
546.535
532.608
518.573
504.525
490.582
476.667
462.809
449.057
435.49
421.967
408.576
395.351
382.313
369.483
356.877
344.51
332.395
320.544
308.965
297.661
286.587
275.863
265.467
255.398
245.653
236.232
227.134
218.358
209.899
201.751
193.94
186.451
179.27
172.384
165.781
159.447
153.382
147.575
142.003
136.662
131.545
126.65
121.977
117.522
113.284
109.257
105.437
101.823
98.4116
95.2
92.1853
89.3665
86.7422
84.2201
73.6509
39.3933
30.9413
27.8953
26.7886
26.5971
26.94
27.6449
28.6155
29.7984
31.162
32.6872
34.3622
36.1799
38.136
40.2285
42.4571
44.8226
47.3271
49.9738
52.7672
55.7126
58.8144
62.0781
65.5108
69.1202
72.9143
76.9016
81.0913
85.4927
90.1153
94.9687
100.063
105.407
111.011
116.884
123.034
129.468
136.194
143.217
150.543
158.176
166.119
174.377
182.951
191.842
201.05
210.572
220.409
230.557
241.015
251.779
262.846
274.212
285.871
297.818
310.045
322.546
335.312
348.333
361.597
375.092
388.804
402.717
416.814
431.075
445.478
459.998
474.609
489.282
503.985
518.684
533.343
547.924
562.386
576.689
590.79
604.645
618.212
631.449
644.312
656.76
668.756
680.261
691.241
701.664
711.502
720.73
729.327
737.277
744.564
751.181
757.12
762.379
766.958
770.858
774.08
776.625
778.497
779.702
780.232
780.084
779.222
777.652
775.4
772.449
768.793
764.418
759.318
753.484
746.912
739.598
731.542
722.747
713.221
702.974
692.023
680.391
668.109
655.211
641.755
627.783
613.352
598.45
583.162
567.633
552.055
536.545
521.08
505.803
490.542
475.453
460.594
446.008
431.722
417.718
404.013
390.615
377.53
364.759
352.3
340.152
328.311
316.773
305.535
294.592
283.93
273.576
263.532
253.799
244.374
235.255
226.44
217.925
209.706
201.759
194.132
186.808
179.772
173.015
166.525
160.278
154.298
148.562
143.061
137.788
132.737
127.9
123.278
118.869
114.668
110.67
106.871
103.27
99.8631
96.648
93.6208
90.7803
88.1221
85.572
73.5123
39.4786
31.0487
28.002
26.8942
26.7151
27.0856
27.8312
28.8556
30.1048
31.5468
33.1613
34.9354
36.8609
38.933
41.1488
43.5074
46.0091
48.6556
51.4496
54.3948
57.4958
60.7588
64.1907
67.7997
71.5945
75.5849
79.7813
84.195
88.8373
93.7199
98.8544
104.253
109.927
115.889
122.148
128.714
135.596
142.803
150.341
158.216
166.433
174.993
183.898
193.153
202.757
212.709
223.005
233.642
244.617
255.924
267.557
279.511
291.777
304.347
317.212
330.362
343.785
357.471
371.405
385.574
399.963
414.556
429.334
444.278
459.367
474.578
489.885
505.26
520.673
536.091
551.479
566.801
582.017
597.086
611.966
626.615
640.987
655.041
668.731
682.016
694.853
707.204
719.03
730.297
740.972
751.026
760.434
769.173
777.226
784.577
791.215
797.134
802.331
806.805
810.557
813.589
815.899
817.491
818.378
818.522
817.952
816.577
814.454
811.572
807.915
803.47
798.223
792.159
785.269
777.542
768.973
759.558
749.298
738.201
726.279
713.55
700.049
685.811
670.871
655.206
638.908
622.116
605.077
587.879
570.556
553.315
535.983
518.787
501.847
485.212
468.96
453.15
437.816
422.976
408.623
394.749
381.342
368.385
355.856
343.733
331.995
320.618
309.584
298.875
288.475
278.368
268.554
259.032
249.797
240.847
232.176
223.78
215.658
207.805
200.214
192.894
185.843
179.052
172.512
166.215
160.131
154.293
148.691
143.317
138.164
133.223
128.486
123.963
119.644
115.522
111.591
107.846
104.287
100.913
97.7189
94.7023
91.862
89.1906
86.6346
72.8871
39.3136
30.9796
27.9889
26.9392
26.8329
27.2943
28.149
29.3021
30.7001
32.311
34.1148
36.0984
38.2533
40.5741
43.0572
45.7012
48.506
51.4729
54.6044
57.9042
61.3774
65.0303
68.8705
72.907
77.1496
81.6091
86.2972
91.2267
96.4103
101.861
107.594
113.621
119.956
126.614
133.603
140.934
148.616
156.659
165.068
173.848
183
192.526
202.423
212.69
223.323
234.32
245.676
257.383
269.434
281.818
294.527
307.547
320.867
334.474
348.353
362.489
376.866
391.47
406.283
421.287
436.466
451.8
467.27
482.856
498.537
514.288
530.085
545.901
561.707
577.47
593.157
608.731
624.157
639.393
654.401
669.138
683.563
697.635
711.31
724.549
737.311
749.559
761.256
772.369
782.867
792.721
801.905
810.398
818.18
825.235
831.551
837.119
841.937
846.003
849.318
851.881
853.69
854.747
855.054
854.624
853.36
851.276
848.381
844.655
840.082
834.64
828.313
821.08
812.93
803.846
793.822
782.85
770.931
758.073
744.294
729.601
713.965
697.445
680.148
662.286
643.934
625.148
606.159
586.821
567.389
548.029
528.836
509.956
491.52
473.624
456.351
439.757
423.869
408.693
394.21
380.391
367.2
354.596
342.534
330.968
319.855
309.153
298.825
288.838
279.166
269.784
260.679
251.842
243.264
234.938
226.859
219.019
211.417
204.05
196.913
190.006
183.331
176.88
170.644
164.627
158.82
153.229
147.853
142.686
137.723
132.957
128.378
123.995
119.8
115.789
111.955
108.295
104.812
101.5
98.3574
95.3785
92.5638
89.9027
87.3644
71.5361
38.8074
30.7446
27.9309
27.0399
27.0894
27.7339
28.8003
30.198
31.8756
33.8023
35.9589
38.3328
40.9157
43.7023
46.6891
49.8743
53.2575
56.8392
60.6218
64.6088
68.805
73.2163
77.8497
82.7136
87.8175
93.172
98.7888
104.68
110.858
117.338
124.131
131.254
138.722
146.548
154.738
163.298
172.232
181.544
191.236
201.309
211.765
222.6
233.811
245.391
257.332
269.624
282.258
295.219
308.494
322.068
335.923
350.043
364.41
379.005
393.807
408.799
423.959
439.268
454.707
470.257
485.898
501.611
517.379
533.181
548.997
564.809
580.593
596.326
611.983
627.535
642.951
658.202
673.252
688.068
702.615
716.855
730.752
744.267
757.363
770.003
782.15
793.771
804.831
815.3
825.149
834.351