/*--------------------------------*- C++ -*----------------------------------*\
  =========                 |
  \\      /  F ield         | OpenFOAM: The Open Source CFD Toolbox
   \\    /   O peration     | Website:  https://openfoam.org
    \\  /    A nd           | Version:  8
     \\/     M anipulation  |
\*---------------------------------------------------------------------------*/
/*   Windows 32 and 64 bit porting by blueCAPE: http://www.bluecape.com.pt   *\
|  Based on Windows porting (2.0.x v4) by Symscape: http://www.symscape.com   |
\*---------------------------------------------------------------------------*/
FoamFile
{
    version     2.0;
    format      ascii;
    class       volScalarField;
    location    "100";
    object      k;
}
// * * * * * * * * * * * * * * * * * * * * * * * * * * * * * * * * * * * * * //

dimensions      [0 2 -2 0 0 0 0];

internalField   nonuniform List<scalar> 
12225
(
0.362814
0.344001
0.327732
0.309838
0.295373
0.283524
0.275462
0.270313
0.270359
0.27192
0.276111
0.280772
0.290039
0.295998
0.306972
0.314254
0.323573
0.33782
0.440192
0.468696
0.461605
0.448377
0.450365
0.458341
0.474463
0.498846
0.524373
0.552604
0.580945
0.606926
0.634506
0.655116
0.681285
0.696177
0.72183
0.736624
0.390545
0.417868
0.42023
0.416824
0.411632
0.407808
0.408017
0.410057
0.414547
0.42152
0.430826
0.439905
0.4515
0.461557
0.473576
0.484652
0.495169
0.509745
0.377546
0.38698
0.391407
0.391342
0.390222
0.387897
0.385663
0.384085
0.382886
0.382908
0.383415
0.384364
0.386407
0.388585
0.39115
0.394636
0.397115
0.402267
0.374562
0.376089
0.378413
0.378665
0.378263
0.377204
0.375489
0.373735
0.372011
0.370452
0.369264
0.368112
0.367401
0.366853
0.366492
0.366494
0.366551
0.367099
0.373815
0.372709
0.372645
0.372383
0.371761
0.370814
0.369553
0.368079
0.366569
0.364971
0.363524
0.362059
0.360749
0.359536
0.358399
0.35746
0.356493
0.355902
0.373783
0.371742
0.370386
0.369286
0.368234
0.367112
0.365913
0.364583
0.363234
0.361802
0.360414
0.359015
0.357665
0.356372
0.355106
0.353959
0.352792
0.351824
0.37382
0.37156
0.369635
0.367976
0.3665
0.365106
0.363774
0.362426
0.361103
0.35976
0.358441
0.357133
0.355848
0.354606
0.353381
0.352229
0.35108
0.350041
0.373832
0.371553
0.369449
0.367525
0.365776
0.364152
0.362643
0.361196
0.359813
0.358467
0.357161
0.355892
0.354653
0.353458
0.352287
0.351174
0.350075
0.349054
0.373831
0.37156
0.369418
0.367405
0.365528
0.363772
0.362131
0.360583
0.359118
0.357722
0.356387
0.355108
0.353876
0.352695
0.351552
0.350462
0.349401
0.348403
0.373829
0.371561
0.369413
0.367378
0.365458
0.363645
0.361936
0.360322
0.358795
0.357348
0.355973
0.354664
0.353414
0.352223
0.351081
0.349994
0.348945
0.347956
0.373828
0.371559
0.369409
0.367371
0.365439
0.363608
0.361875
0.360232
0.358675
0.357198
0.355795
0.354462
0.353193
0.351986
0.350832
0.349737
0.348686
0.347692
0.373827
0.371557
0.369405
0.367365
0.36543
0.363593
0.36185
0.360196
0.358624
0.357132
0.355712
0.354363
0.353079
0.351859
0.350694
0.349588
0.34853
0.347528
0.373827
0.371555
0.369402
0.36736
0.365423
0.363583
0.361837
0.360177
0.3586
0.3571
0.355672
0.354315
0.353022
0.351792
0.350619
0.349504
0.348439
0.347427
0.373826
0.371553
0.369399
0.367355
0.365416
0.363575
0.361826
0.360164
0.358584
0.357081
0.355651
0.354289
0.352993
0.351758
0.350581
0.34946
0.348391
0.347372
0.373826
0.371552
0.369396
0.367351
0.36541
0.363568
0.361818
0.360154
0.358572
0.357068
0.355635
0.354272
0.352973
0.351736
0.350557
0.349434
0.348362
0.34734
0.373825
0.371551
0.369394
0.367348
0.365406
0.363562
0.361811
0.360146
0.358563
0.357057
0.355623
0.354258
0.352958
0.35172
0.350539
0.349414
0.34834
0.347317
0.373825
0.371551
0.369393
0.367346
0.365404
0.363559
0.361806
0.36014
0.358556
0.357049
0.355614
0.354248
0.352947
0.351707
0.350526
0.349399
0.348324
0.347299
0.373825
0.37155
0.369393
0.367346
0.365403
0.363557
0.361804
0.360138
0.358553
0.357045
0.35561
0.354243
0.352942
0.351701
0.350519
0.349391
0.348315
0.347289
0.373825
0.371551
0.369394
0.367346
0.365404
0.363559
0.361807
0.36014
0.358556
0.357048
0.355614
0.354247
0.352946
0.351704
0.350522
0.349394
0.348319
0.347293
0.373825
0.371552
0.369395
0.367349
0.365407
0.363564
0.361811
0.360147
0.358563
0.357057
0.355623
0.354259
0.352958
0.35172
0.350539
0.349413
0.348339
0.347315
0.373826
0.371553
0.369397
0.367352
0.365413
0.363571
0.361823
0.360162
0.358585
0.357085
0.355659
0.354301
0.35301
0.351779
0.350607
0.349489
0.348424
0.347406
0.373826
0.371554
0.369399
0.36736
0.365429
0.363603
0.361876
0.360241
0.358692
0.357222
0.355826
0.354496
0.353231
0.352023
0.350871
0.349768
0.348718
0.347708
0.373828
0.371551
0.369412
0.367417
0.365556
0.36382
0.36219
0.360652
0.359191
0.357796
0.356459
0.355175
0.353939
0.35275
0.351605
0.350501
0.349443
0.348418
0.373823
0.371554
0.369605
0.367893
0.36634
0.364893
0.363496
0.362123
0.360763
0.359416
0.358083
0.356773
0.355492
0.354242
0.353034
0.351861
0.35074
0.349652
0.373788
0.371991
0.371113
0.370266
0.369361
0.368312
0.367049
0.365631
0.364122
0.362577
0.361032
0.359525
0.358076
0.356685
0.355385
0.354145
0.353013
0.351928
0.374355
0.375572
0.377776
0.377858
0.377288
0.375886
0.373836
0.371642
0.369506
0.367483
0.365664
0.364083
0.36271
0.361533
0.360607
0.359814
0.359284
0.358792
0.379125
0.394297
0.39825
0.396574
0.392539
0.387604
0.383646
0.380448
0.378266
0.376849
0.37649
0.376732
0.377404
0.378673
0.380415
0.382391
0.384783
0.387087
0.408394
0.42754
0.422415
0.411054
0.402225
0.397919
0.398619
0.400951
0.40605
0.413026
0.420956
0.429774
0.438761
0.448102
0.457191
0.466421
0.475156
0.483998
0.36605
0.353414
0.341989
0.330208
0.318984
0.30838
0.299412
0.291669
0.285403
0.28033
0.276677
0.273857
0.272298
0.271154
0.271183
0.271438
0.272152
0.273338
0.0123476
0.0352706
0.0526039
0.0678491
0.0815178
0.09384
0.104957
0.114721
0.122983
0.129716
0.134877
0.139943
0.144855
0.148643
0.15041
0.149631
0.16407
0.173695
0.178303
0.176976
0.17182
0.150176
0.167495
0.181674
0.197266
0.213524
0.230582
0.248293
0.26663
0.285419
0.304619
0.324064
0.343724
0.363449
0.383228
0.402934
0.422578
0.442057
0.4614
0.48052
0.499463
0.518156
0.536653
0.554897
0.572944
0.590741
0.608343
0.625706
0.642877
0.65982
0.676578
0.693118
0.709474
0.725616
0.741574
0.75732
0.772875
0.788217
0.80336
0.818287
0.833001
0.847494
0.861761
0.875802
0.889599
0.903168
0.916476
0.929551
0.942352
0.954914
0.967187
0.979227
0.990974
1.00251
1.01376
1.02482
1.03561
1.04624
1.05664
1.06694
1.07703
1.08706
1.09693
1.10678
1.11648
1.12613
1.13552
1.14459
1.15278
1.1592
1.15979
1.17765
1.18459
1.19038
1.20826
1.21305
1.23291
1.24419
1.25545
1.26702
1.27577
1.28513
1.29343
1.30137
1.30642
1.30798
1.31681
1.33175
1.34389
1.3484
1.35191
1.34923
1.35481
1.36079
1.36507
1.37547
1.37407
1.37222
1.37326
1.37457
1.3787
1.37338
1.36958
1.3628
1.35512
1.34593
1.33537
1.32343
1.30998
1.29505
1.27863
1.26081
1.24159
1.22111
1.19935
1.17619
1.15194
1.12671
1.10064
1.07389
1.04656
1.01865
0.990692
0.962972
0.93423
0.909165
0.89027
0.872364
0.854545
0.836759
0.819089
0.801573
0.784324
0.767255
0.750226
0.733409
0.717242
0.701462
0.685881
0.67062
0.655794
0.641504
0.627751
0.614484
0.601713
0.589456
0.577704
0.566441
0.555668
0.545359
0.535504
0.526047
0.517015
0.50817
0.499917
0.490978
0.483773
0.472504
0.466075
0.438602
0.0275852
0.0635989
0.0878747
0.106324
0.121992
0.135908
0.14849
0.160047
0.170856
0.18126
0.191705
0.202463
0.213572
0.225283
0.238701
0.256202
0.275587
0.293658
0.310557
0.326997
0.343894
0.362279
0.386984
0.413836
0.442256
0.471845
0.502533
0.534248
0.566881
0.600299
0.634395
0.669039
0.704123
0.739523
0.775142
0.810878
0.846659
0.882402
0.918058
0.953567
0.988901
1.02402
1.05891
1.09354
1.12792
1.16202
1.19586
1.22942
1.2627
1.2957
1.32842
1.36085
1.393
1.42486
1.45643
1.48768
1.51862
1.54923
1.5795
1.60941
1.63894
1.66808
1.6968
1.7251
1.75293
1.78029
1.80715
1.83351
1.85933
1.88463
1.90936
1.93348
1.95698
1.97987
2.00211
2.02374
2.04474
2.06514
2.08494
2.10418
2.12288
2.14108
2.1588
2.1761
2.19297
2.20949
2.22564
2.24146
2.25693
2.27215
2.28731
2.30378
2.31864
2.33393
2.35085
2.36645
2.38384
2.39977
2.4163
2.43268
2.44903
2.46546
2.48173
2.49776
2.51306
2.52838
2.54401
2.5581
2.57253
2.58581
2.59886
2.61124
2.62434
2.63573
2.64648
2.65582
2.66154
2.6747
2.68145
2.68359
2.69099
2.6906
2.69272
2.69003
2.68521
2.67789
2.668
2.65549
2.64028
2.62197
2.60053
2.57597
2.54834
2.51769
2.48413
2.44777
2.40888
2.36768
2.3244
2.27929
2.23259
2.18452
2.13527
2.08547
2.03518
1.98436
1.93388
1.88349
1.83333
1.78362
1.7346
1.68645
1.63926
1.59283
1.5468
1.50186
1.45831
1.41627
1.37544
1.33575
1.29742
1.26059
1.22522
1.19116
1.15847
1.12716
1.09719
1.06851
1.04113
1.01497
0.990009
0.966168
0.943401
0.921575
0.900794
0.880437
0.86191
0.841215
0.826584
0.78611
0.0496422
0.0971522
0.12633
0.148303
0.167031
0.18396
0.199825
0.215141
0.230362
0.245931
0.262212
0.27943
0.297806
0.317639
0.339369
0.363235
0.388402
0.414211
0.440611
0.467904
0.496576
0.527234
0.560443
0.595603
0.632329
0.670397
0.709662
0.749975
0.791209
0.833248
0.87598
0.919284
0.963047
1.00715
1.0515
1.09599
1.14054
1.18508
1.22957
1.27394
1.31816
1.3622
1.40603
1.44965
1.49302
1.53615
1.57902
1.62162
1.66397
1.70604
1.74784
1.78936
1.8306
1.87155
1.91219
1.95253
1.99254
2.03222
2.07153
2.11048
2.14902
2.18715
2.22482
2.26202
2.29872
2.33489
2.37049
2.4055
2.43988
2.47362
2.50667
2.539
2.57059
2.60143
2.63148
2.66075
2.6892
2.71686
2.7437
2.76975
2.795
2.81948
2.84319
2.86617
2.88842
2.90997
2.93083
2.95103
2.97062
2.98966
3.00825
3.02655
3.04424
3.0619
3.07958
3.09666
3.11381
3.13033
3.14684
3.16297
3.17895
3.19469
3.21018
3.22542
3.24027
3.25502
3.26947
3.2833
3.29756
3.31104
3.32425
3.33703
3.34945
3.36078
3.37144
3.38123
3.38982
3.39862
3.40499
3.40828
3.41051
3.40997
3.40844
3.40376
3.39623
3.38563
3.37178
3.35449
3.33363
3.309
3.28054
3.24823
3.21213
3.17231
3.1289
3.08211
3.03216
2.97933
2.92391
2.86615
2.80634
2.74477
2.68172
2.6178
2.55365
2.48944
2.42545
2.36171
2.29837
2.23568
2.17389
2.11319
2.05372
1.9955
1.93853
1.88304
1.82917
1.77704
1.72634
1.67679
1.62887
1.58276
1.5384
1.49555
1.45434
1.41482
1.37693
1.34062
1.30589
1.27269
1.24096
1.21065
1.18169
1.15399
1.12759
1.10217
1.07849
1.05448
1.03662
1.00414
0.074558
0.13218
0.166568
0.192492
0.214617
0.234743
0.253833
0.272541
0.291387
0.310805
0.331144
0.352682
0.37563
0.400161
0.426412
0.454406
0.483943
0.514825
0.547025
0.580666
0.615974
0.653157
0.692251
0.733081
0.77546
0.819219
0.864204
0.910285
0.957355
1.0053
1.054
1.10334
1.15321
1.20349
1.25408
1.3049
1.35587
1.40692
1.45799
1.50904
1.56002
1.61089
1.66164
1.71223
1.76264
1.81287
1.86289
1.9127
1.9623
2.01166
2.06079
2.10967
2.15831
2.20668
2.25478
2.3026
2.35011
2.39731
2.44417
2.49067
2.53679
2.58248
2.62773
2.6725
2.71675
2.76044
2.80354
2.846
2.88777
2.92883
2.96912
3.00861
3.04724
3.085
3.12183
3.15772
3.19263
3.22653
3.25941
3.29126
3.32206
3.35181
3.38051
3.40816
3.43476
3.46034
3.48489
3.50844
3.53103
3.55272
3.57359
3.59369
3.61306
3.63185
3.65005
3.66756
3.68453
3.70087
3.71673
3.73205
3.74693
3.76136
3.77535
3.78895
3.80211
3.81495
3.82737
3.83939
3.85128
3.86262
3.87356
3.88401
3.89383
3.90277
3.91093
3.9182
3.92438
3.92949
3.93205
3.93249
3.93165
3.92862
3.92336
3.91518
3.9039
3.88928
3.87108
3.84909
3.82312
3.79302
3.75869
3.72012
3.67734
3.63042
3.57953
3.52487
3.46669
3.40526
3.34088
3.27386
3.20454
3.13337
3.0608
2.98741
2.91374
2.84008
2.76668
2.69368
2.62127
2.5497
2.47921
2.41
2.34222
2.27598
2.21135
2.14846
2.0874
2.02825
1.97094
1.91537
1.86166
1.80991
1.76006
1.71163
1.665
1.62025
1.57724
1.53594
1.4964
1.45854
1.42232
1.38768
1.35458
1.32295
1.2928
1.264
1.23699
1.21078
1.18981
1.16032
0.100513
0.166974
0.206964
0.237094
0.262724
0.285981
0.308009
0.329563
0.351216
0.373435
0.396608
0.421043
0.446964
0.474521
0.503805
0.534844
0.567602
0.602033
0.638134
0.675948
0.715544
0.75695
0.800139
0.845017
0.891465
0.939357
0.98857
1.03898
1.09049
1.14296
1.19629
1.25035
1.30504
1.36026
1.41591
1.47192
1.52821
1.5847
1.64135
1.69809
1.75488
1.81168
1.86846
1.92517
1.98181
2.03834
2.09476
2.15103
2.20716
2.26313
2.31892
2.37454
2.42996
2.48518
2.54017
2.59494
2.64945
2.70369
2.75764
2.81126
2.86453
2.91742
2.96988
3.02188
3.07337
3.1243
3.17462
3.22428
3.27322
3.3214
3.36874
3.41519
3.4607
3.5052
3.54865
3.59098
3.63216
3.67214
3.71087
3.74833
3.78447
3.81928
3.85274
3.88483
3.91554
3.94487
3.97283
3.99943
4.0247
4.04869
4.07148
4.0931
4.11363
4.13311
4.15158
4.16904
4.18556
4.20116
4.21593
4.22988
4.24309
4.25557
4.26736
4.2785
4.28903
4.299
4.30837
4.3172
4.32553
4.33331
4.34058
4.3473
4.3532
4.35813
4.36218
4.36547
4.36709
4.36715
4.36569
4.36257
4.35764
4.35054
4.34098
4.32855
4.31296
4.29393
4.27121
4.24454
4.21373
4.1786
4.13904
4.095
4.04651
3.99364
3.93654
3.87541
3.81049
3.74207
3.67047
3.59609
3.51937
3.44082
3.36093
3.28023
3.19923
3.11826
3.03759
2.95743
2.87801
2.79958
2.72237
2.64659
2.5724
2.49995
2.42933
2.36066
2.294
2.22942
2.16689
2.10638
2.04793
1.99157
1.93729
1.88491
1.83449
1.78607
1.7394
1.69447
1.6514
1.61008
1.57048
1.53259
1.49634
1.46172
1.42872
1.39733
1.36781
1.33979
1.3162
1.28599
0.126066
0.200563
0.246041
0.280358
0.309432
0.335673
0.360379
0.384394
0.40835
0.432753
0.458021
0.484491
0.512423
0.541998
0.573334
0.606495
0.641507
0.678373
0.717098
0.757689
0.800151
0.844463
0.89058
0.938424
0.987901
1.0389
1.09133
1.14505
1.19998
1.25599
1.31298
1.37084
1.42947
1.48878
1.54869
1.6091
1.66995
1.73116
1.79267
1.85442
1.91637
1.97846
2.04066
2.10292
2.16522
2.22753
2.28983
2.35209
2.4143
2.47645
2.53851
2.60048
2.66234
2.72407
2.78567
2.84711
2.90838
2.96944
3.03028
3.09086
3.15115
3.21111
3.2707
3.32986
3.38855
3.4467
3.50426
3.56115
3.6173
3.67266
3.72713
3.78065
3.83313
3.8845
3.93468
3.98361
4.03119
4.07738
4.1221
4.16529
4.2069
4.24688
4.2852
4.32183
4.35672
4.38988
4.42129
4.45096
4.47891
4.50518
4.52982
4.55289
4.57443
4.59449
4.61311
4.63033
4.64621
4.6608
4.67417
4.68638
4.69747
4.70751
4.71652
4.72457
4.73173
4.73808
4.74357
4.74819
4.75202
4.75516
4.75766
4.75958
4.76051
4.76008
4.75843
4.75608
4.75239
4.74737
4.74085
4.73268
4.72266
4.7105
4.69589
4.67851
4.65804
4.63418
4.60666
4.5752
4.53958
4.49961
4.45515
4.40612
4.35253
4.29444
4.23196
4.16529
4.09468
4.02044
3.94295
3.86268
3.7801
3.69572
3.61005
3.5236
3.43681
3.35008
3.26367
3.17786
3.09289
3.00901
2.92647
2.84546
2.76617
2.68875
2.61332
2.53997
2.46879
2.39982
2.33306
2.2685
2.20615
2.14601
2.08807
2.03224
1.97852
1.92693
1.87735
1.82973
1.78406
1.74012
1.69794
1.65752
1.61881
1.58182
1.54657
1.51309
1.48157
1.45196
1.42613
1.39558
0.15042
0.231933
0.282522
0.320813
0.353158
0.3822
0.409361
0.435563
0.461485
0.487669
0.514566
0.542544
0.571901
0.60286
0.635583
0.670174
0.706696
0.74518
0.785638
0.828068
0.872452
0.918756
0.966926
1.01689
1.06856
1.12185
1.17666
1.23289
1.29043
1.34919
1.40906
1.46996
1.53179
1.59446
1.65789
1.722
1.78671
1.85196
1.91768
1.98381
2.0503
2.11709
2.18413
2.25139
2.31883
2.38641
2.45412
2.52191
2.58978
2.6577
2.72566
2.79364
2.86162
2.92959
2.99752
3.06541
3.13322
3.20093
3.26852
3.33594
3.40316
3.47014
3.53682
3.60314
3.66905
3.73447
3.79934
3.86356
3.92706
3.98975
4.05152
4.1123
4.17197
4.23044
4.28761
4.34337
4.39763
4.4503
4.50128
4.5505
4.59786
4.64331
4.68677
4.72819
4.76754
4.80477
4.83986
4.87281
4.90363
4.93234
4.95898
4.98359
5.00622
5.02692
5.04572
5.06268
5.07786
5.09133
5.10315
5.11339
5.12211
5.12939
5.13523
5.13972
5.14299
5.1452
5.14621
5.14591
5.14437
5.14203
5.13878
5.13458
5.12926
5.12271
5.11506
5.10635
5.0964
5.08512
5.07241
5.0581
5.04201
5.02386
5.00341
4.98034
4.95435
4.92514
4.89242
4.85591
4.81535
4.77054
4.72131
4.66756
4.60926
4.54643
4.4792
4.40773
4.33232
4.25331
4.17111
4.08618
3.999
3.91008
3.81991
3.72897
3.63771
3.54649
3.45562
3.3654
3.2761
3.18796
3.10122
3.0161
2.93277
2.8514
2.77212
2.69503
2.6202
2.54768
2.47748
2.40961
2.34406
2.28082
2.21987
2.16116
2.10467
2.05039
1.99826
1.94824
1.90029
1.85426
1.81013
1.76779
1.72717
1.68831
1.65126
1.61608
1.58293
1.55189
1.52416
1.49312
0.172906
0.260322
0.315463
0.357367
0.39272
0.424347
0.453762
0.481946
0.509615
0.537341
0.565597
0.594781
0.625224
0.657185
0.690864
0.726405
0.763901
0.803407
0.84495
0.88853
0.934127
0.981704
1.03121
1.08258
1.13573
1.19058
1.24705
1.30505
1.36448
1.42525
1.48729
1.5505
1.6148
1.68011
1.74635
1.81345
1.88134
1.94994
2.01919
2.08903
2.1594
2.23025
2.30153
2.37319
2.44519
2.5175
2.59009
2.66292
2.73597
2.80922
2.88266
2.95625
3.02999
3.10385
3.17782
3.25188
3.326
3.40015
3.4743
3.54841
3.62244
3.69634
3.77005
3.84351
3.91665
3.98938
4.06162
4.13327
4.20424
4.27442
4.34368
4.41193
4.47902
4.54485
4.60928
4.67219
4.73345
4.79293
4.85053
4.90612
4.9596
5.01088
5.05986
5.10646
5.15062
5.19228
5.2314
5.26796
5.30195
5.33339
5.36229
5.3887
5.41264
5.43416
5.45331
5.47014
5.48472
5.49711
5.50739
5.51563
5.52187
5.5263
5.52877
5.52942
5.52835
5.52584
5.52174
5.51608
5.50899
5.50061
5.49095
5.48005
5.46786
5.45438
5.43966
5.42373
5.40653
5.388
5.36807
5.3466
5.32344
5.29838
5.2712
5.24163
5.20938
5.17418
5.13573
5.09374
5.04796
4.99814
4.94411
4.88572
4.82293
4.75575
4.68428
4.60873
4.52938
4.44656
4.36069
4.2722
4.18156
4.08926
3.99576
3.90152
3.80695
3.71243
3.61828
3.5248
3.43228
3.34097
3.2511
3.16288
3.0765
2.99212
2.90989
2.8299
2.75223
2.67693
2.60402
2.53351
2.46539
2.39966
2.33629
2.27523
2.21647
2.15997
2.10571
2.05365
2.00374
1.95587
1.91
1.86606
1.82398
1.7837
1.74524
1.70869
1.67419
1.64188
1.61252
1.58085
0.192988
0.28518
0.344217
0.389286
0.427322
0.461284
0.492754
0.522752
0.552019
0.581142
0.610613
0.640846
0.672192
0.704938
0.739314
0.77549
0.81359
0.853692
0.895838
0.940039
0.986286
1.03455
1.08478
1.13692
1.1909
1.24666
1.30412
1.3632
1.42383
1.48592
1.54941
1.61421
1.68026
1.74748
1.81581
1.88516
1.95549
2.02671
2.09878
2.17162
2.24518
2.31941
2.39425
2.46966
2.5456
2.62202
2.6989
2.7762
2.85389
2.93196
3.01038
3.08913
3.1682
3.24756
3.32719
3.40707
3.48718
3.56749
3.64795
3.72854
3.8092
3.88987
3.9705
4.05101
4.13133
4.21135
4.29098
4.37012
4.44864
4.52642
4.60333
4.67923
4.75396
4.82739
4.89935
4.96969
5.03827
5.10491
5.16948
5.23183
5.29182
5.34933
5.40423
5.45642
5.5058
5.5523
5.59586
5.63643
5.67398
5.70851
5.74003
5.76856
5.79412
5.81676
5.83653
5.85347
5.86765
5.87915
5.88803
5.89438
5.89815
5.89954
5.89857
5.89537
5.89004
5.88267
5.87331
5.86201
5.84889
5.83404
5.81754
5.79945
5.77981
5.75868
5.73611
5.71215
5.68682
5.66012
5.63199
5.60238
5.57117
5.53824
5.5034
5.46643
5.42709
5.38513
5.34028
5.29225
5.24079
5.18564
5.12662
5.06357
4.99643
4.92521
4.85001
4.77102
4.68849
4.60274
4.51415
4.42312
4.33009
4.2355
4.13979
4.04338
3.94666
3.84999
3.75368
3.65807
3.56343
3.47001
3.37804
3.28773
3.19925
3.11278
3.02846
2.94641
2.86669
2.78936
2.71445
2.64196
2.5719
2.50427
2.43903
2.37616
2.31561
2.25736
2.2014
2.14768
2.09616
2.04676
1.99942
1.95409
1.91072
1.86927
1.82975
1.79213
1.75653
1.72311
1.69236
1.66002
0.210284
0.30617
0.368412
0.416153
0.456506
0.492528
0.525842
0.557492
0.588233
0.618657
0.64926
0.680461
0.712621
0.74604
0.780963
0.817582
0.85604
0.896435
0.938827
0.983244
1.02969
1.07814
1.12857
1.18093
1.23517
1.29123
1.34905
1.40857
1.46973
1.53245
1.59669
1.66238
1.72946
1.79786
1.86752
1.9384
2.01041
2.08351
2.15764
2.23274
2.30876
2.38564
2.46333
2.54179
2.62098
2.70085
2.78137
2.86252
2.94425
3.02656
3.10941
3.1928
3.27669
3.36107
3.44592
3.53122
3.61694
3.70305
3.78951
3.87628
3.9633
4.05053
4.13788
4.22528
4.31265
4.39987
4.48684
4.57344
4.65953
4.74497
4.82961
4.91327
4.9958
5.07701
5.15673
5.23476
5.31092
5.38503
5.4569
5.52635
5.59322
5.65734
5.71856
5.77675
5.83177
5.88353
5.93194
5.97693
6.01845
6.05648
6.09101
6.12204
6.14959
6.1737
6.1944
6.21176
6.22583
6.23669
6.24443
6.24893
6.25047
6.24908
6.24487
6.23789
6.22826
6.21606
6.20138
6.18431
6.16494
6.14338
6.11974
6.0941
6.06656
6.03722
6.00616
5.97349
5.93927
5.90354
5.86633
5.82764
5.78744
5.74565
5.70217
5.65684
5.60949
5.55991
5.50787
5.45313
5.39542
5.33451
5.27022
5.20241
5.13101
5.05602
4.9775
4.89563
4.81061
4.72272
4.63229
4.53968
4.44527
4.34946
4.25263
4.15517
4.05743
3.95974
3.86241
3.76578
3.67012
3.57568
3.48266
3.39126
3.30165
3.21401
3.12849
3.04522
2.96426
2.88566
2.80946
2.73567
2.66431
2.59537
2.52883
2.46466
2.40283
2.34331
2.28607
2.2311
2.17833
2.12772
2.07921
2.03275
1.98832
1.94588
1.90544
1.86701
1.83053
1.79617
1.76425
1.73127
0.224563
0.323147
0.387907
0.437814
0.480097
0.517877
0.552804
0.585933
0.61802
0.649654
0.681323
0.713444
0.746369
0.780402
0.81579
0.852736
0.891393
0.931874
0.974254
1.01858
1.06486
1.11311
1.1633
1.2154
1.26938
1.32519
1.3828
1.44216
1.50322
1.56594
1.63027
1.69616
1.76356
1.83242
1.9027
1.97434
2.0473
2.12153
2.19697
2.27358
2.3513
2.4301
2.50991
2.5907
2.67243
2.75506
2.83855
2.92288
3.00802
3.09394
3.18063
3.26807
3.35623
3.44511
3.53468
3.62491
3.71579
3.80728
3.89933
3.99191
4.08497
4.17843
4.27223
4.36628
4.46048
4.55473
4.64889
4.74284
4.83643
4.92948
5.02184
5.11331
5.20369
5.29279
5.38039
5.46628
5.55023
5.63203
5.71145
5.7883
5.86235
5.93341
6.00129
6.06583
6.12687
6.18428
6.23792
6.28772
6.3336
6.37551
6.41343
6.44734
6.47725
6.50319
6.52518
6.54329
6.55757
6.56809
6.57486
6.57795
6.57754
6.57366
6.56638
6.5558
6.54201
6.52509
6.50517
6.48231
6.45664
6.42827
6.39731
6.36389
6.32814
6.29017
6.25015
6.20819
6.16441
6.11893
6.07185
6.02321
5.97309
5.9215
5.86841
5.81375
5.75744
5.69931
5.63923
5.57703
5.51245
5.44529
5.37541
5.30268
5.22703
5.14844
5.06694
4.98265
4.89575
4.80644
4.71499
4.62171
4.5269
4.4309
4.33404
4.23665
4.13903
4.04148
3.94425
3.84772
3.75218
3.65781
3.56481
3.47334
3.38359
3.29573
3.20993
3.12631
3.04493
2.96585
2.8891
2.81471
2.7427
2.67307
2.60582
2.5409
2.4783
2.41798
2.35992
2.3041
2.25048
2.19902
2.14966
2.10237
2.05712
2.01391
1.97273
1.9336
1.89645
1.86132
1.82842
1.79492
0.235729
0.336122
0.40275
0.454325
0.498139
0.537353
0.573638
0.608046
0.641328
0.674061
0.706721
0.739704
0.773353
0.807958
0.843761
0.880961
0.919716
0.960146
1.00234
1.04634
1.0922
1.13993
1.18952
1.24097
1.29426
1.34937
1.40627
1.46494
1.52534
1.58747
1.65128
1.71674
1.78381
1.85247
1.92267
1.99439
2.06759
2.14222
2.21826
2.29565
2.37436
2.45434
2.53556
2.61798
2.70155
2.78625
2.87204
2.95889
3.04678
3.13568
3.22558
3.31645
3.4083
3.50111
3.59485
3.68949
3.78502
3.88139
3.97858
4.07653
4.1752
4.2745
4.37438
4.47473
4.57546
4.67644
4.77754
4.87862
4.97951
5.08003
5.17998
5.27917
5.37736
5.47433
5.56983
5.66363
5.75545
5.84506
5.93219
6.0166
6.09804
6.17627
6.25107
6.32224
6.38958
6.45292
6.51212
6.56706
6.61763
6.66376
6.7054
6.74253
6.77513
6.80323
6.82684
6.84601
6.8608
6.87127
6.87745
6.87946
6.87738
6.87127
6.86119
6.84723
6.82948
6.80803
6.78299
6.75444
6.72251
6.68731
6.64898
6.60765
6.56349
6.51664
6.46728
6.41559
6.36174
6.3059
6.24823
6.18889
6.12802
6.06574
6.0021
5.93716
5.87094
5.80336
5.73433
5.66366
5.59105
5.51668
5.44047
5.36233
5.28218
5.19999
5.11574
5.02949
4.94134
4.85142
4.75992
4.66703
4.57299
4.47804
4.38244
4.28646
4.19032
4.09427
3.99844
3.90327
3.80901
3.71584
3.62394
3.53348
3.44461
3.35748
3.27234
3.18927
3.10834
3.0296
2.95307
2.87879
2.80682
2.73716
2.66979
2.60469
2.54185
2.48123
2.42282
2.3666
2.31254
2.26059
2.21073
2.16292
2.11714
2.0734
2.03169
1.99203
1.95435
1.9186
1.88495
1.85106
0.243786
0.345214
0.413109
0.465874
0.510822
0.55114
0.588504
0.623964
0.658259
0.69195
0.72549
0.759257
0.79357
0.8287
0.864875
0.902281
0.941071
0.981364
1.02325
1.0668
1.11205
1.15904
1.20778
1.25829
1.31056
1.3646
1.42039
1.47794
1.53723
1.59827
1.66106
1.72558
1.79178
1.85963
1.92915
2.00032
2.07312
2.14752
2.2235
2.30103
2.38006
2.46058
2.54255
2.62593
2.7107
2.79682
2.88427
2.97301
3.06303
3.15428
3.24674
3.34045
3.43539
3.53154
3.62888
3.72737
3.82699
3.92771
4.02949
4.13229
4.23606
4.34073
4.44621
4.55242
4.65923
4.76655
4.8742
4.98205
5.08991
5.19759
5.30488
5.41154
5.51734
5.62201
5.72529
5.82689
5.92652
6.02391
6.11875
6.21075
6.29964
6.38513
6.46696
6.5449
6.61871
6.68818
6.75314
6.81343
6.86892
6.91951
6.96513
7.00573
7.04129
7.07181
7.09731
7.11782
7.13339
7.14408
7.14997
7.15112
7.1477
7.13962
7.127
7.10991
7.08842
7.06264
7.03264
6.99854
6.96043
6.91846
6.87275
6.82346
6.77076
6.71484
6.6559
6.59414
6.52978
6.46307
6.39424
6.32352
6.25115
6.17738
6.10233
6.02614
5.94842
5.86978
5.79037
5.71017
5.62986
5.54876
5.46674
5.38372
5.29959
5.2143
5.12779
5.04006
4.95115
4.86113
4.77008
4.67813
4.58544
4.49216
4.39849
4.3046
4.21069
4.1169
4.02325
3.93067
3.83903
3.74839
3.6589
3.57069
3.48388
3.3986
3.3151
3.23352
3.15393
3.07636
3.00085
2.92744
2.85622
2.78719
2.72035
2.65567
2.59314
2.53274
2.47447
2.4183
2.36422
2.3122
2.2622
2.21421
2.16821
2.12421
2.0822
2.04221
2.00413
1.96795
1.93375
1.89963
0.24882
0.350622
0.419239
0.472747
0.518448
0.559535
0.597688
0.633949
0.669045
0.703516
0.737792
0.77223
0.807125
0.84272
0.879222
0.916799
0.95559
0.995706
1.03724
1.08025
1.12481
1.17095
1.21871
1.2681
1.31915
1.3719
1.42635
1.48248
1.54031
1.59989
1.66125
1.72446
1.7894
1.85608
1.92451
1.9947
2.06665
2.14033
2.21574
2.29286
2.37167
2.45215
2.53428
2.61803
2.70337
2.7903
2.87878
2.96879
3.06031
3.15331
3.24777
3.34376
3.44123
3.54015
3.64051
3.74227
3.84539
3.94983
4.05561
4.16267
4.27095
4.38038
4.49087
4.60235
4.71469
4.82777
4.94144
5.05553
5.16986
5.28422
5.39838
5.5121
5.6251
5.73711
5.84783
5.95694
6.06413
6.16906
6.27141
6.37086
6.46707
6.55973
6.64854
6.73322
6.8135
6.88913
6.9599
7.02561
7.08611
7.14128
7.191
7.23522
7.27388
7.30698
7.33453
7.35655
7.37309
7.38419
7.38994
7.39046
7.38593
7.37612
7.36117
7.34114
7.31611
7.28615
7.25135
7.2118
7.16761
7.1189
7.06582
7.00853
6.94722
6.88208
6.81333
6.74123
6.66602
6.58802
6.50755
6.4249
6.34023
6.2536
6.16566
6.07677
5.98803
5.89922
5.8104
5.72201
5.63318
5.54438
5.4557
5.36711
5.27855
5.18992
5.10116
5.0122
4.92299
4.83351
4.74374
4.65372
4.56347
4.47306
4.38257
4.29209
4.20173
4.11157
4.0215
3.93224
3.84382
3.75633
3.66988
3.58457
3.50053
3.41784
3.33705
3.25803
3.1808
3.10538
3.03181
2.96008
2.89036
2.82267
2.757
2.69336
2.63172
2.57209
2.51446
2.45884
2.40519
2.35351
2.30376
2.25594
2.21004
2.16607
2.12403
2.08391
2.04562
2.00922
1.97469
1.94055
0.251026
0.352595
0.421446
0.475294
0.521389
0.562923
0.601575
0.638381
0.67405
0.709098
0.743917
0.778883
0.814261
0.85026
0.887054
0.924788
0.963581
1.00353
1.04473
1.08723
1.13111
1.17642
1.22321
1.27146
1.32123
1.37259
1.42564
1.48031
1.53665
1.59469
1.65444
1.71592
1.77917
1.84424
1.91117
1.97996
2.05065
2.12321
2.19767
2.27402
2.35224
2.43233
2.51427
2.59804
2.68363
2.77102
2.86018
2.95109
3.04375
3.13812
3.23418
3.33191
3.43131
3.53238
3.6351
3.73946
3.84543
3.95296
4.06208
4.17272
4.2848
4.39826
4.51303
4.62902
4.74613
4.86422
4.98315
5.10275
5.22281
5.34314
5.46348
5.58358
5.70315
5.82188
5.93945
6.05552
6.16974
6.28175
6.39118
6.49767
6.60084
6.70035
6.79585
6.88702
6.97355
7.05515
7.13158
7.2026
7.26802
7.32769
7.38147
7.42927
7.47103
7.50672
7.53633
7.55989
7.57742
7.58898
7.59465
7.59463
7.58911
7.57769
7.56053
7.53767
7.50919
7.47513
7.43559
7.39063
7.34038
7.28494
7.22446
7.1591
7.08908
7.01459
6.93589
6.85324
6.7669
6.67688
6.58376
6.48808
6.39046
6.29187
6.19229
6.09207
5.99217
5.89192
5.79214
5.69323
5.59521
5.49834
5.40276
5.3085
5.21553
5.12374
5.03304
4.94328
4.85435
4.76611
4.67845
4.59126
4.50446
4.41799
4.33181
4.24591
4.1603
4.075
3.99002
3.90561
3.82189
3.73893
3.65686
3.57574
3.49567
3.41666
3.3392
3.26329
3.18896
3.11625
3.0452
2.97583
2.90841
2.84285
2.77913
2.71722
2.65714
2.59883
2.54238
2.48779
2.43505
2.38414
2.33505
2.28776
2.24231
2.19868
2.15686
2.11685
2.07862
2.04222
2.00761
1.97366
0.250665
0.351659
0.420284
0.474042
0.520137
0.56175
0.600561
0.637607
0.673588
0.709009
0.744251
0.779686
0.815513
0.851909
0.889019
0.926961
0.965833
1.00572
1.04668
1.0888
1.13213
1.17673
1.2227
1.26999
1.31866
1.36876
1.42032
1.47336
1.52802
1.58435
1.64245
1.70232
1.76402
1.82758
1.89306
1.96049
2.0299
2.10131
2.17473
2.25017
2.32766
2.40718
2.48872
2.57228
2.65784
2.74538
2.83489
2.92635
3.01974
3.11504
3.21223
3.31129
3.41223
3.51503
3.61968
3.72616
3.83443
3.94445
4.05618
4.1696
4.28468
4.40134
4.51954
4.63917
4.76014
4.88232
5.00558
5.12974
5.25462
5.37999
5.50562
5.63122
5.75651
5.88114
6.00479
6.12708
6.24763
6.36606
6.48194
6.59489
6.70449
6.81035
6.91209
7.00933
7.10172
7.18896
7.27073
7.34678
7.41687
7.48081
7.53844
7.58964
7.63431
7.67241
7.70392
7.72885
7.74721
7.75906
7.76446
7.76384
7.75722
7.7441
7.72461
7.69879
7.66669
7.62837
7.58388
7.53331
7.47676
7.41433
7.34617
7.27241
7.19315
7.10859
7.01905
6.9249
6.82655
6.72486
6.61994
6.51239
6.40312
6.29166
6.17904
6.0659
5.95294
5.84055
5.72934
5.61983
5.51235
5.40723
5.30469
5.20483
5.10764
5.01304
4.92087
4.83094
4.74303
4.6569
4.57231
4.48901
4.40679
4.32545
4.24481
4.16475
4.08517
4.00602
3.92726
3.84897
3.77121
3.69405
3.61757
3.54183
3.46691
3.39293
3.32007
3.24846
3.17814
3.10918
3.04159
2.97537
2.91079
2.84785
2.78654
2.72685
2.66879
2.61237
2.55769
2.50471
2.45339
2.40374
2.35574
2.30939
2.26471
2.22174
2.18043
2.14082
2.10293
2.06681
2.03236
1.99881
0.248326
0.348147
0.416078
0.469366
0.515153
0.556603
0.595393
0.632552
0.668767
0.704519
0.740158
0.775968
0.812176
0.84895
0.886417
0.924676
0.963808
1.00388
1.04493
1.08702
1.1302
1.17451
1.21999
1.26669
1.31468
1.36402
1.41476
1.46697
1.52072
1.57609
1.63316
1.69198
1.75263
1.81517
1.87967
1.94616
2.01469
2.08528
2.15792
2.23272
2.30969
2.38881
2.47008
2.55349
2.63902
2.72666
2.81639
2.9082
3.00205
3.09792
3.1958
3.29567
3.3975
3.50129
3.60702
3.71466
3.82419
3.93558
4.04881
4.16384
4.28065
4.39919
4.51938
4.64115
4.76442
4.8891
5.01506
5.14213
5.27015
5.3989
5.52814
5.65759
5.78696
5.9159
6.04406
6.17105
6.29646
6.41988
6.54086
6.65897
6.77376
6.88479
6.99164
7.0939
7.19119
7.28313
7.36939
7.44967
7.52369
7.59123
7.65208
7.70609
7.75315
7.79317
7.82612
7.85199
7.87079
7.88256
7.88731
7.88591
7.87799
7.86295
7.84094
7.81198
7.77609
7.73333
7.68369
7.62726
7.5641
7.49433
7.41808
7.33556
7.24712
7.153
7.05343
6.94886
6.83995
6.72648
6.60926
6.48897
6.36627
6.24168
6.11597
5.98993
5.8644
5.74008
5.61772
5.49798
5.38142
5.26848
5.15948
5.05459
4.95386