/*--------------------------------*- C++ -*----------------------------------*\
  =========                 |
  \\      /  F ield         | OpenFOAM: The Open Source CFD Toolbox
   \\    /   O peration     | Website:  https://openfoam.org
    \\  /    A nd           | Version:  8
     \\/     M anipulation  |
\*---------------------------------------------------------------------------*/
/*   Windows 32 and 64 bit porting by blueCAPE: http://www.bluecape.com.pt   *\
|  Based on Windows porting (2.0.x v4) by Symscape: http://www.symscape.com   |
\*---------------------------------------------------------------------------*/
FoamFile
{
    version     2.0;
    format      ascii;
    class       volScalarField;
    location    "100";
    object      nut;
}
// * * * * * * * * * * * * * * * * * * * * * * * * * * * * * * * * * * * * * //

dimensions      [0 2 -1 0 0 0 0];

internalField   nonuniform List<scalar> 
12225
(
4.14924e-05
3.93417e-05
3.74815e-05
3.54351e-05
3.37808e-05
3.24256e-05
3.15037e-05
3.09147e-05
3.09201e-05
3.10966e-05
3.15799e-05
3.2104e-05
3.31744e-05
3.38524e-05
3.50785e-05
3.60652e-05
3.66878e-05
3.97247e-05
0.000332259
0.000215134
0.000179291
0.000157641
0.000146234
0.000138164
0.000132678
0.000131734
0.000129404
0.000130171
0.000128933
0.000129562
0.000128546
0.000128692
0.000127949
0.000127768
0.000127495
0.000126529
0.000668776
0.000450541
0.000355823
0.000309746
0.000275337
0.000251005
0.000231732
0.000217178
0.000202607
0.000192049
0.000182523
0.000175034
0.000169285
0.000163356
0.000160196
0.000155023
0.000153626
0.000148955
0.000801645
0.00069157
0.000572672
0.000499945
0.000449456
0.000411863
0.000380813
0.000355866
0.000333989
0.000314578
0.000298292
0.000281312
0.000270191
0.000255574
0.000247851
0.000235414
0.000229737
0.000219049
0.000839616
0.000810134
0.000740802
0.000676305
0.000624005
0.000581266
0.000545907
0.000514407
0.000489506
0.00046421
0.000445773
0.000423728
0.000409685
0.000390309
0.000379323
0.000362238
0.000353744
0.000337712
0.000850345
0.000843264
0.000819563
0.000786476
0.000750836
0.000715795
0.000685784
0.000656007
0.000632524
0.000607332
0.000588884
0.00056696
0.000552002
0.000532636
0.000520228
0.000502847
0.000492638
0.000475817
0.000851581
0.000851014
0.000843301
0.000833456
0.000817146
0.000796902
0.000777882
0.000756654
0.000738871
0.000719017
0.000703427
0.000685404
0.000671881
0.000655544
0.000643851
0.00062879
0.000619005
0.000603814
0.000851584
0.000851811
0.000850043
0.000847451
0.000841408
0.000833746
0.000824806
0.000813396
0.000802789
0.000790396
0.000779636
0.000767396
0.000757252
0.000745514
0.00073622
0.000724983
0.00071689
0.000705058
0.000851675
0.000851527
0.000851019
0.000850338
0.000848877
0.000846165
0.000843025
0.000838285
0.000833387
0.000827323
0.000821164
0.00081469
0.000808323
0.000801345
0.000795088
0.000788029
0.000782168
0.000774393
0.000851756
0.000851384
0.000851045
0.000850631
0.000850248
0.000849364
0.000848404
0.000846772
0.000844946
0.000842512
0.000839897
0.000836757
0.000833738
0.000830067
0.000826861
0.000822765
0.000819728
0.000815009
0.000851785
0.000851357
0.000851013
0.000850613
0.00085033
0.000849903
0.000849525
0.000848925
0.000848298
0.000847384
0.000846452
0.000845156
0.000843962
0.000842311
0.000840943
0.000838958
0.000837553
0.000835241
0.000851789
0.000851359
0.000850996
0.000850605
0.000850292
0.000849938
0.000849645
0.000849278
0.000848952
0.000848499
0.000848091
0.000847496
0.000846983
0.000846223
0.000845616
0.000844687
0.000844019
0.000842925
0.000851786
0.000851363
0.000850986
0.000850604
0.000850269
0.000849926
0.000849629
0.000849312
0.00084904
0.000848725
0.000848458
0.00084812
0.000847836
0.000847455
0.000847145
0.000846711
0.000846372
0.000845884
0.000851783
0.000851364
0.000850978
0.000850602
0.000850256
0.000849917
0.000849607
0.000849299
0.000849021
0.000848739
0.000848486
0.000848221
0.000847985
0.000847731
0.000847504
0.000847253
0.00084703
0.00084678
0.000851781
0.000851364
0.000850973
0.000850598
0.000850247
0.000849909
0.000849592
0.000849287
0.000849
0.000848723
0.000848463
0.000848211
0.000847975
0.000847744
0.000847528
0.000847317
0.000847118
0.000846923
0.00085178
0.000851363
0.000850969
0.000850594
0.000850239
0.000849901
0.000849581
0.000849275
0.000848985
0.000848708
0.000848445
0.000848193
0.000847953
0.000847724
0.000847506
0.000847297
0.000847099
0.000846909
0.000851779
0.000851363
0.000850967
0.000850591
0.000850234
0.000849895
0.000849573
0.000849266
0.000848974
0.000848696
0.000848431
0.000848178
0.000847936
0.000847706
0.000847486
0.000847276
0.000847075
0.000846883
0.000851779
0.000851362
0.000850965
0.000850589
0.000850231
0.000849891
0.000849568
0.00084926
0.000848967
0.000848687
0.000848421
0.000848167
0.000847924
0.000847692
0.000847471
0.000847259
0.000847057
0.000846864
0.000851779
0.000851362
0.000850965
0.000850588
0.00085023
0.00084989
0.000849566
0.000849257
0.000848963
0.000848683
0.000848416
0.000848161
0.000847918
0.000847685
0.000847463
0.00084725
0.000847047
0.000846852
0.000851779
0.000851362
0.000850966
0.000850589
0.000850232
0.000849892
0.000849568
0.00084926
0.000848967
0.000848687
0.00084842
0.000848165
0.000847921
0.000847688
0.000847465
0.000847252
0.000847048
0.000846853
0.000851779
0.000851363
0.000850967
0.000850592
0.000850235
0.000849897
0.000849574
0.000849268
0.000848974
0.000848696
0.000848426
0.000848172
0.000847923
0.000847688
0.000847456
0.000847237
0.00084702
0.000846815
0.000851778
0.000851366
0.000850968
0.000850599
0.00085024
0.000849908
0.000849581
0.000849275
0.000848966
0.000848673
0.000848367
0.000848075
0.00084776
0.000847461
0.000847129
0.000846819
0.000846466
0.000846146
0.000851773
0.000851376
0.000850971
0.000850615
0.000850241
0.00084989
0.000849479
0.000849055
0.000848531
0.000847981
0.000847305
0.000846609
0.000845773
0.000844947
0.000843965
0.000843042
0.000841934
0.000840959
0.000851768
0.000851415
0.000850964
0.000850548
0.000849861
0.000848967
0.000847612
0.000845978
0.000843909
0.000841642
0.000838963
0.000836225
0.000833131
0.000830132
0.000826787
0.000823709
0.00082022
0.000817222
0.000851859
0.000851379
0.000850196
0.000848243
0.000844471
0.000839356
0.000832769
0.000825665
0.000817972
0.000810024
0.000801637
0.000793651
0.000785364
0.000777746
0.000769793
0.00076276
0.000755196
0.000748881
0.000852108
0.000847667
0.000839903
0.000827144
0.000808715
0.000789647
0.000769988
0.000751422
0.000733327
0.000716917
0.00070097
0.000686819
0.000672884
0.000660732
0.000648457
0.000638032
0.000627065
0.000618149
0.000843241
0.000822505
0.000775192
0.000726454
0.000684908
0.000649852
0.000618482
0.00059203
0.000568414
0.000548336
0.000529737
0.000514034
0.000498821
0.000486086
0.000473297
0.000462809
0.000451754
0.000442947
0.000795683
0.00066824
0.000570633
0.000509904
0.000465618
0.000431186
0.000404167
0.000382492
0.000364231
0.00034909
0.000335986
0.000325096
0.000314573
0.000306289
0.00029804
0.000291448
0.000284389
0.000279043
0.000501314
0.000348357
0.000292675
0.000259181
0.000236329
0.000221179
0.00021163
0.000203861
0.000198576
0.000195083
0.000192235
0.000190377
0.000188598
0.000187453
0.000186185
0.00018549
0.000184577
0.000184166
7.27386e-05
7.02253e-05
6.79544e-05
6.56135e-05
6.3383e-05
6.1276e-05
5.94945e-05
5.79549e-05
5.67108e-05
5.57026e-05
5.49767e-05
5.44165e-05
5.41073e-05
5.38779e-05
5.3891e-05
5.39266e-05
5.40875e-05
5.4315e-05
3.75046e-06
4.92077e-05
7.3592e-05
9.49834e-05
0.000114171
0.000131603
0.000147765
0.000162937
0.000177875
0.00019415
0.00021521
0.000233768
0.000245263
0.00025503
0.000276839
0.000360113
0.000422281
0.000432374
0.000409196
0.000367182
0.00029839
4.81411e-05
5.10487e-05
5.31778e-05
5.55067e-05
5.77373e-05
5.99358e-05
6.21069e-05
6.42527e-05
6.6366e-05
6.84445e-05
7.04796e-05
7.24701e-05
7.44097e-05
7.62989e-05
7.81345e-05
7.99183e-05
8.16484e-05
8.3328e-05
8.49563e-05
8.6537e-05
8.80698e-05
8.95586e-05
9.10038e-05
9.24096e-05
9.37764e-05
9.51071e-05
9.64026e-05
9.76652e-05
9.88959e-05
0.000100096
0.000101267
0.00010241
0.000103525
0.000104613
0.000105675
0.000106711
0.000107721
0.000108705
0.000109664
0.000110597
0.000111505
0.000112387
0.000113244
0.000114074
0.000114879
0.000115657
0.000116412
0.000117139
0.000117842
0.000118516
0.000119164
0.000119784
0.000120377
0.000120943
0.000121484
0.000121998
0.000122489
0.000122955
0.000123402
0.000123825
0.000124232
0.000124618
0.000124989
0.000125338
0.000125667
0.000125959
0.000126193
0.000126307
0.000126173
0.000125106
0.000128839
0.000128776
0.000126644
0.000129891
0.000127682
0.00013117
0.000129948
0.000130754
0.000130838
0.000131072
0.000131463
0.000131859
0.000132013
0.000130929
0.000130435
0.000132167
0.000132214
0.00013382
0.000133446
0.000133108
0.000131706
0.00013266
0.000132126
0.000133664
0.000134944
0.000134131
0.000132693
0.000133356
0.000132818
0.000134215
0.000133581
0.000133599
0.000133248
0.000132935
0.000132534
0.00013208
0.000131571
0.000130999
0.000130351
0.000129629
0.000128833
0.000127957
0.000127005
0.000126018
0.000124919
0.000123746
0.000122496
0.00012117
0.000119781
0.000118346
0.000116796
0.000115153
0.000113709
0.0001116
0.000109067
0.000107713
0.000106555
0.000105403
0.000104225
0.000103034
0.000101826
0.000100613
9.94343e-05
9.82266e-05
9.69398e-05
9.57231e-05
9.45481e-05
9.33517e-05
9.21468e-05
9.09427e-05
8.97584e-05
8.86045e-05
8.74734e-05
8.63623e-05
8.5278e-05
8.42213e-05
8.31913e-05
8.21893e-05
8.12155e-05
8.02695e-05
7.93493e-05
7.84559e-05
7.75745e-05
7.67353e-05
7.58316e-05
7.51033e-05
7.39262e-05
7.32795e-05
7.09447e-05
8.50115e-06
7.40239e-05
0.000149683
0.0002088
0.000252733
0.000285198
0.000308878
0.000326454
0.000340241
0.000351775
0.000361452
0.00036874
0.000373613
0.000377597
0.000383047
0.000391992
0.000399388
0.000400294
0.000392729
0.000375671
0.000349256
0.000315184
0.000320031
0.00033107
0.000343724
0.000357176
0.000371304
0.00038618
0.000401778
0.000418013
0.00043478
0.00045198
0.000469494
0.000487215
0.00050503
0.000522854
0.000540594
0.000558184
0.000575555
0.000592663
0.000609459
0.000625916
0.000641997
0.000657688
0.000673027
0.00068802
0.000702664
0.000716972
0.000730946
0.0007446
0.00075794
0.000770979
0.00078372
0.000796176
0.000808348
0.000820244
0.000831861
0.000843205
0.000854271
0.000865058
0.000875562
0.000885777
0.000895696
0.000905312
0.000914618
0.000923606
0.00093227
0.000940604
0.000948607
0.000956283
0.000963613
0.000970545
0.000977078
0.000983199
0.000988913
0.00099421
0.0009991
0.00100358
0.00100767
0.00101137
0.00101472
0.00101774
0.00102046
0.00102293
0.0010252
0.00102733
0.00102943
0.00103158
0.00103397
0.00103681
0.00104043
0.00104559
0.00104584
0.00104494
0.00104942
0.00104909
0.00105371
0.0010533
0.00105739
0.00106059
0.00106548
0.00107082
0.00107655
0.00108208
0.00108744
0.00109584
0.00110682
0.00110176
0.00110849
0.00111187
0.00111759
0.0011243
0.00113566
0.00113894
0.00114585
0.00114553
0.00114791
0.00115899
0.00116444
0.00116174
0.00117189
0.00117449
0.00118125
0.00118547
0.00118928
0.00119242
0.00119486
0.00119661
0.00119769
0.0011977
0.00119672
0.00119473
0.0011917
0.00118761
0.00118261
0.00117657
0.00116958
0.00116167
0.00115288
0.00114326
0.00113295
0.00112187
0.00110979
0.0010979
0.00108487
0.00106693
0.00104738
0.0010271
0.00100648
0.000985738
0.000965021
0.000944448
0.000924011
0.000903819
0.000883991
0.000864411
0.000845337
0.000827059
0.000809228
0.000791679
0.000774568
0.000757978
0.00074189
0.000726184
0.000710896
0.000696079
0.000681701
0.000667753
0.000654239
0.000641147
0.00062844
0.000616134
0.000604088
0.000592485
0.000580819
0.000569716
0.000558144
0.000545847
0.000526527
0.000474485
1.53147e-05
0.000107008
0.000209574
0.00029328
0.000358239
0.00040739
0.000443607
0.000469383
0.000487022
0.000498958
0.000507743
0.000514838
0.000521375
0.000528567
0.000537613
0.000549214
0.00056253
0.000575977
0.000588174
0.000598584
0.000608078
0.000619797
0.000639226
0.000663129
0.000689478
0.000717526
0.000747679
0.000779669
0.000812787
0.000846744
0.000881341
0.000916412
0.000951776
0.000987242
0.00102261
0.00105778
0.00109264
0.0011271
0.00116106
0.00119449
0.00122731
0.00125951
0.00129107
0.00132197
0.00135223
0.00138186
0.00141086
0.00143925
0.00146704
0.00149425
0.00152089
0.00154698
0.00157252
0.00159755
0.00162205
0.00164604
0.00166953
0.00169251
0.00171499
0.00173696
0.00175842
0.00177936
0.00179977
0.00181964
0.00183895
0.00185769
0.00187584
0.0018934
0.00191034
0.00192664
0.0019423
0.00195728
0.00197157
0.00198516
0.00199803
0.00201019
0.00202164
0.00203239
0.00204244
0.00205182
0.00206057
0.00206872
0.00207632
0.00208344
0.00209016
0.00209656
0.00210274
0.00210879
0.00211481
0.00212079
0.00212661
0.00213174
0.00213473
0.00213787
0.00214272
0.00214597
0.00215089
0.00215443
0.0021603
0.00216608
0.00217299
0.00218024
0.00218781
0.00219563
0.00220374
0.00221295
0.00222085
0.00222317
0.002232
0.00223955
0.00224883
0.0022591
0.00227032
0.00227782
0.00228621
0.00229153
0.00229936
0.00231073
0.00231988
0.00232366
0.00233156
0.00233684
0.00234347
0.0023486
0.00235251
0.00235506
0.00235617
0.00235571
0.00235358
0.00234958
0.00234367
0.00233581
0.00232596
0.00231413
0.00230042
0.0022848
0.00226734
0.00224814
0.00222729
0.00220489
0.00218111
0.002156
0.00212951
0.00210231
0.00207389
0.00204181
0.00200748
0.0019719
0.00193568
0.00189919
0.00186267
0.00182631
0.0017902
0.00175458
0.00171978
0.00168564
0.00165264
0.0016213
0.00159065
0.00156019
0.00153062
0.00150207
0.00147446
0.00144734
0.00142092
0.00139535
0.0013705
0.00134634
0.00132291
0.00130015
0.00127801
0.00125646
0.00123531
0.00121473
0.00119409
0.00117408
0.00115312
0.00113208
0.00110593
0.00103953
2.29856e-05
0.000138345
0.000263489
0.000367111
0.000449077
0.000512118
0.000559613
0.000594732
0.00062044
0.000639512
0.000654374
0.000667048
0.000679297
0.000692582
0.000708054
0.000726387
0.000747584
0.000771112
0.000796305
0.0008228
0.000850886
0.000881666
0.000916054
0.000953624
0.000993846
0.00103643
0.00108057
0.00112582
0.00117214
0.00121932
0.00126712
0.00131547
0.00136425
0.00141336
0.00146235
0.00151104
0.00155926
0.00160692
0.00165392
0.0017002
0.00174571
0.00179043
0.00183432
0.00187739
0.00191963
0.00196105
0.00200166
0.00204146
0.00208049
0.00211874
0.00215625
0.00219302
0.00222908
0.00226443
0.00229909
0.00233307
0.00236638
0.00239901
0.00243097
0.00246225
0.00249285
0.00252276
0.00255197
0.00258047
0.00260823
0.00263525
0.00266149
0.00268695
0.00271159
0.0027354
0.00275835
0.00278043
0.00280161
0.00282188
0.00284123
0.00285966
0.00287716
0.00289373
0.0029094
0.00292418
0.00293811
0.00295122
0.00296357
0.00297522
0.00298625
0.00299671
0.00300669
0.00301624
0.00302537
0.00303403
0.00304208
0.0030493
0.00305557
0.00306174
0.00306815
0.00307413
0.00308047
0.00308663
0.00309356
0.00310066
0.0031082
0.00311595
0.00312386
0.00313195
0.00314016
0.00314839
0.00315562
0.00316154
0.00316969
0.00317786
0.00318693
0.00319651
0.00320603
0.00321483
0.00322349
0.0032303
0.00323891
0.00324955
0.00325621
0.00326088
0.00326711
0.00327227
0.00327693
0.00328023
0.00328198
0.00328202
0.00328035
0.00327668
0.00327084
0.00326266
0.00325206
0.00323897
0.00322335
0.0032052
0.00318457
0.00316149
0.00313605
0.00310835
0.00307851
0.00304667
0.00301301
0.00297766
0.00294073
0.00290254
0.00286287
0.00282069
0.00277651
0.00273103
0.00268478
0.00263817
0.00259147
0.00254492
0.00249867
0.00245297
0.00240808
0.00236405
0.00232108
0.00227953
0.00223915
0.00220028
0.00216304
0.00212731
0.002093
0.00205889
0.00202578
0.00199386
0.00196283
0.00193264
0.00190338
0.00187498
0.00184729
0.00182028
0.00179376
0.0017678
0.00174193
0.00171652
0.00169042
0.00166351
0.00163833
0.00157031
3.09343e-05
0.000166013
0.000312208
0.000434135
0.000532001
0.000608491
0.000667543
0.00071279
0.000747533
0.000774758
0.000797123
0.000816938
0.000836145
0.000856315
0.000878623
0.000903813
0.000932186
0.000963672
0.00099802
0.00103501
0.00107464
0.00111707
0.00116242
0.00121052
0.00126108
0.00131379
0.00136824
0.0014241
0.00148116
0.0015392
0.001598
0.00165722
0.0017166
0.00177588
0.00183486
0.00189345
0.00195151
0.00200895
0.00206567
0.00212161
0.0021767
0.00223092
0.00228423
0.00233662
0.00238808
0.00243862
0.00248824
0.00253695
0.00258476
0.00263169
0.00267777
0.00272299
0.00276739
0.00281097
0.00285375
0.00289574
0.00293694
0.00297737
0.00301701
0.00305588
0.00309396
0.00313124
0.00316771
0.00320336
0.00323817
0.00327212
0.00330518
0.00333733
0.00336854
0.00339879
0.00342806
0.00345631
0.00348352
0.00350968
0.00353476
0.00355875
0.00358165
0.00360345
0.00362416
0.00364379
0.00366237
0.00367991
0.00369647
0.00371209
0.00372682
0.00374072
0.00375383
0.0037662
0.00377782
0.00378867
0.00379868
0.00380779
0.00381613
0.00382398
0.00383151
0.00383864
0.00384558
0.00385232
0.0038591
0.00386583
0.00387257
0.00387926
0.00388591
0.00389255
0.00389917
0.00390563
0.00391163
0.00391732
0.00392358
0.00393004
0.00393716
0.00394448
0.00395144
0.00395892
0.00396677
0.00397329
0.00397954
0.00398518
0.00398987
0.00399384
0.0039977
0.00400071
0.00400276
0.00400344
0.00400249
0.00399967
0.00399496
0.00398808
0.00397884
0.00396706
0.00395263
0.00393546
0.00391549
0.0038927
0.00386712
0.0038388
0.00380782
0.00377428
0.00373833
0.00370012
0.00365985
0.00361769
0.0035738
0.00352836
0.00348133
0.00343236
0.00338171
0.00332984
0.0032772
0.00322416
0.003171
0.00311797
0.00306526
0.00301311
0.00296175
0.0029113
0.00286191
0.00281381
0.00276697
0.00272158
0.00267776
0.00263586
0.0025962
0.00255797
0.00252129
0.00248621
0.00245202
0.00241868
0.00238646
0.00235525
0.00232477
0.00229495
0.00226566
0.00223689
0.00220835
0.00218017
0.00215166
0.00212217
0.00209613
0.00203012
3.87393e-05
0.000191083
0.00035604
0.000494905
0.000607429
0.000696946
0.000767427
0.00082292
0.00086699
0.0009028
0.000933137
0.000960421
0.000986682
0.00101356
0.00104227
0.00107367
0.00110822
0.00114608
0.00118722
0.00123155
0.00127894
0.00132931
0.00138254
0.00143842
0.00149668
0.00155703
0.00161914
0.0016827
0.00174744
0.00181308
0.00187936
0.00194601
0.00201278
0.00207945
0.00214584
0.0022118
0.00227722
0.00234199
0.00240601
0.00246921
0.00253154
0.00259296
0.00265344
0.00271296
0.0027715
0.00282908
0.00288568
0.00294132
0.00299601
0.00304976
0.0031026
0.00315453
0.00320557
0.00325575
0.00330507
0.00335354
0.00340117
0.00344797
0.00349394
0.00353908
0.00358337
0.00362682
0.00366941
0.00371111
0.00375192
0.0037918
0.00383073
0.00386869
0.00390563
0.00394153
0.00397635
0.00401007
0.00404265
0.00407407
0.00410429
0.00413329
0.00416105
0.00418756
0.00421281
0.00423681
0.00425955
0.00428105
0.00430133
0.00432042
0.00433836
0.00435518
0.00437091
0.00438558
0.0043992
0.00441177
0.00442328
0.00443373
0.00444322
0.00445189
0.00445984
0.00446713
0.00447384
0.00448004
0.00448582
0.0044912
0.00449624
0.00450095
0.00450532
0.00450942
0.00451331
0.00451692
0.00452023
0.00452334
0.00452628
0.00452906
0.00453283
0.00453788
0.00454188
0.00454534
0.00454788
0.00455054
0.0045528
0.00455477
0.00455614
0.00455699
0.0045574
0.00455703
0.0045557
0.00455311
0.00454902
0.00454323
0.00453555
0.00452575
0.00451362
0.00449899
0.00448171
0.00446167
0.00443878
0.00441301
0.00438436
0.00435288
0.00431862
0.00428169
0.00424222
0.00420039
0.00415637
0.00411035
0.00406249
0.00401297
0.00396185
0.00390909
0.0038549
0.0037996
0.00374354
0.00368703
0.00363035
0.00357376
0.00351746
0.00346167
0.0034066
0.00335242
0.00329926
0.00324728
0.00319653
0.00314716
0.00309928
0.0030531
0.00300881
0.00296671
0.00292688
0.00288922
0.00285334
0.00281898
0.00278603
0.00275392
0.00272241
0.00269155
0.00266116
0.00263125
0.00260164
0.00257234
0.00254297
0.00251288
0.00248576
0.00242708
4.61659e-05
0.000213265
0.000394678
0.000548975
0.000675047
0.000776884
0.000858394
0.000923899
0.000977155
0.00102145
0.00105965
0.00109422
0.00112723
0.00116038
0.00119496
0.00123188
0.00127173
0.00131481
0.00136123
0.00141096
0.00146389
0.00151986
0.00157867
0.00164009
0.00170383
0.0017696
0.00183709
0.001906
0.00197605
0.00204695
0.00211844
0.00219028
0.00226223
0.0023341
0.00240572
0.00247692
0.0025476
0.00261764
0.00268695
0.00275547
0.00282313
0.00288989
0.00295572
0.0030206
0.00308451
0.00314745
0.00320942
0.00327042
0.00333047
0.00338958
0.00344776
0.00350503
0.00356142
0.00361692
0.00367156
0.00372535
0.00377829
0.0038304
0.00388167
0.0039321
0.00398169
0.00403043
0.0040783
0.00412527
0.00417134
0.00421646
0.00426062
0.00430377
0.00434587
0.00438689
0.00442679
0.00446552
0.00450304
0.00453931
0.00457428
0.00460793
0.00464022
0.00467111
0.00470059
0.00472862
0.00475521
0.00478034
0.00480402
0.00482625
0.00484704
0.00486642
0.0048844
0.004901
0.00491623
0.0049301
0.00494262
0.00495382
0.00496377
0.00497254
0.00498023
0.00498689
0.00499259
0.00499741
0.0050014
0.00500462
0.00500713
0.00500899
0.00501016
0.00501078
0.005011
0.00501073
0.00501005
0.00500933
0.00500836
0.00500698
0.00500603
0.00500507
0.00500369
0.00500189
0.00499974
0.00499738
0.00499477
0.00499192
0.00498875
0.00498523
0.00498131
0.00497681
0.00497154
0.00496526
0.00495776
0.00494883
0.00493825
0.00492579
0.00491124
0.00489439
0.00487508
0.00485315
0.00482851
0.00480108
0.00477085
0.00473782
0.00470205
0.00466362
0.00462265
0.0045793
0.00453371
0.00448608
0.00443656
0.00438534
0.00433252
0.00427822
0.00422261
0.00416596
0.00410855
0.00405066
0.00399253
0.00393441
0.00387652
0.00381908
0.00376229
0.00370632
0.00365131
0.00359738
0.00354462
0.00349315
0.00344308
0.00339457
0.00334776
0.00330282
0.00326016
0.00322037
0.00318312
0.00314799
0.00311466
0.00308263
0.00305163
0.00302124
0.00299113
0.0029614
0.00293196
0.00290277
0.00287364
0.00284411
0.00281652
0.00276556
5.30159e-05
0.000232377
0.000427882
0.000595935
0.000734398
0.000847755
0.000939758
0.00101489
0.00107704
0.00112955
0.00117534
0.0012169
0.00125631
0.0012953
0.0013352
0.001377
0.00142137
0.00146872
0.00151924
0.00157296
0.00162981
0.00168962
0.00175221
0.00181731
0.00188466
0.00195396
0.00202492
0.00209725
0.00217067
0.00224492
0.00231974
0.0023949
0.0024702
0.00254545
0.00262048
0.00269514
0.00276933
0.00284293
0.00291586
0.00298804
0.00305942
0.00312995
0.0031996
0.00326835
0.00333617
0.00340307
0.00346903
0.00353408
0.00359821
0.00366143
0.00372377
0.00378524
0.00384585
0.00390562
0.00396457
0.00402271
0.00408005
0.00413659
0.00419234
0.00424729
0.00430144
0.00435478
0.00440728
0.00445893
0.00450969
0.00455955
0.00460845
0.00465636
0.00470323
0.00474901
0.00479365
0.0048371
0.00487929
0.00492018
0.00495971
0.00499781
0.00503444
0.00506955
0.00510309
0.00513502
0.00516531
0.00519393
0.00522085
0.00524607
0.00526957
0.00529135
0.00531141
0.00532976
0.0053464
0.00536135
0.00537462
0.00538623
0.00539624
0.00540471
0.0054117
0.00541728
0.00542151
0.00542445
0.00542617
0.00542671
0.00542612
0.00542463
0.00542194
0.00541833
0.0054143
0.00540997
0.0054047
0.00539888
0.00539248
0.00538569
0.00537874
0.00537157
0.00536406
0.00535623
0.00534814
0.00533987
0.00533148
0.00532299
0.00531439
0.00530567
0.00529677
0.00528757
0.00527792
0.00526763
0.00525652
0.00524438
0.00523098
0.00521609
0.00519949
0.00518093
0.00516023
0.00513721
0.00511173
0.00508369
0.00505303
0.00501974
0.00498386
0.00494543
0.00490454
0.0048613
0.00481586
0.00476836
0.00471898
0.00466786
0.00461516
0.00456104
0.00450567
0.00444927
0.00439209
0.00433437
0.00427634
0.00421823
0.00416026
0.00410264
0.0040456
0.0039893
0.00393386
0.00387941
0.00382604
0.00377387
0.003723
0.00367358
0.00362571
0.00357954
0.00353532
0.0034938
0.0034556
0.00342005
0.00338663
0.00335486
0.00332438
0.00329485
0.00326596
0.00323739
0.00320897
0.00318071
0.00315253
0.00312419
0.00309691
0.00305269
5.91317e-05
0.000248349
0.000455589
0.000635625
0.000785231
0.000909177
0.001011
0.00109526
0.00116588
0.00122627
0.00127932
0.00132752
0.00137296
0.00141737
0.00146211
0.00150821
0.00155641
0.00160718
0.0016608
0.00171736
0.00177684
0.0018391
0.00190396
0.0019712
0.00204057
0.00211179
0.00218458
0.00225868
0.00233383
0.00240977
0.00248629
0.00256316
0.0026402
0.00271722
0.00279409
0.00287066
0.00294681
0.00302246
0.00309751
0.00317189
0.00324555
0.00331845
0.00339054
0.00346181
0.00353224
0.00360182
0.00367055
0.00373843
0.00380547
0.00387169
0.0039371
0.00400172
0.00406556
0.00412866
0.00419101
0.00425264
0.00431355
0.00437375
0.00443325
0.00449204
0.00455012
0.00460747
0.00466407
0.00471989
0.00477492
0.0048291
0.00488239
0.00493475
0.00498611
0.00503642
0.00508562
0.00513363
0.00518037
0.00522579
0.00526979
0.00531231
0.00535327
0.0053926
0.00543023
0.00546609
0.00550012
0.00553228
0.0055625
0.00559077
0.00561703
0.00564127
0.00566347
0.00568361
0.0057017
0.00571774
0.00573174
0.00574371
0.0057537
0.00576174
0.00576791
0.00577225
0.00577484
0.00577573
0.00577499
0.00577267
0.0057686
0.00576301
0.0057564
0.0057489
0.00574059
0.00573097
0.00572032
0.0057088
0.0056965
0.00568357
0.00567016
0.00565633
0.00564211
0.00562758
0.00561284
0.00559799
0.00558313
0.00556833
0.00555365
0.0055391
0.00552467
0.00551031
0.0054959
0.00548131
0.00546639
0.00545094
0.00543475
0.00541758
0.00539918
0.00537929
0.0053577
0.00533419
0.0053086
0.00528078
0.00525064
0.00521813
0.00518326
0.00514603
0.00510648
0.00506469
0.00502075
0.0049748
0.00492696
0.00487738
0.00482622
0.00477364
0.00471981
0.00466495
0.00460925
0.00455293
0.0044962
0.00443928
0.00438238
0.00432573
0.00426956
0.00421405
0.00415929
0.00410541
0.00405249
0.00400067
0.00395006
0.00390079
0.00385297
0.0038067
0.0037622
0.00371999
0.00368137
0.0036458
0.0036126
0.00358125
0.00355138
0.00352267
0.00349485
0.00346766
0.00344091
0.00341413
0.00338734
0.0033605
0.00333411
0.00329547
6.44041e-05
0.000261209
0.000477875
0.000668048
0.000827441
0.000960897
0.00107174
0.00116447
0.00124304
0.00131082
0.0013707
0.00142513
0.0014762
0.00152559
0.00157469
0.00162455
0.00167594
0.00172941
0.00178528
0.00184371
0.00190472
0.00196823
0.00203412
0.00210217
0.00217218
0.0022439
0.00231708
0.00239149
0.0024669
0.00254307
0.00261981
0.00269691
0.00277422
0.00285156
0.0029288
0.00300583
0.00308252
0.0031588
0.00323457
0.00330978
0.00338436
0.00345828
0.00353151
0.00360402
0.00367579
0.00374682
0.00381711
0.00388667
0.0039555
0.00402362
0.00409105
0.00415781
0.00422392
0.0042894
0.00435428
0.00441857
0.00448227
0.0045454
0.00460797
0.00466997
0.00473139
0.00479222
0.00485244
0.00491202
0.00497092
0.0050291
0.00508652
0.0051431
0.00519879
0.0052535
0.00530717
0.0053597
0.00541101
0.005461
0.00550957
0.00555662
0.00560206
0.00564578
0.00568769
0.0057277
0.00576572
0.00580167
0.00583546
0.00586704
0.00589635
0.00592333
0.00594795
0.00597018
0.00598999
0.00600737
0.00602233
0.00603487
0.00604502
0.00605281
0.0060583
0.00606154
0.00606258
0.00606152
0.00605842
0.00605299
0.00604558
0.00603661
0.00602627
0.00601449
0.00600107
0.00598618
0.00596995
0.00595252
0.00593403
0.00591464
0.0058945
0.00587373
0.00585246
0.00583082
0.00580897
0.00578706
0.00576522
0.00574361
0.00572232
0.00570144
0.00568102
0.00566106
0.00564153
0.00562234
0.00560338
0.00558447
0.00556542
0.00554603
0.00552599
0.00550502
0.00548288
0.00545935
0.00543422
0.00540728
0.00537838
0.00534748
0.00531453
0.00527947
0.00524231
0.00520304
0.00516173
0.00511845
0.00507331
0.00502644
0.00497796
0.00492803
0.00487682
0.00482454
0.00477136
0.00471744
0.00466299
0.0046082
0.00455331
0.00449854
0.00444415
0.00439032
0.00433713
0.00428467
0.00423305
0.0041824
0.00413287
0.0040846
0.00403766
0.00399218
0.00394833
0.00390657
0.00386829
0.00383317
0.00380049
0.00376975
0.00374059
0.00371271
0.00368588
0.00365988
0.00363455
0.0036096
0.00358445
0.00355923
0.00353406
0.00350005
6.87648e-05
0.000271053
0.000494905
0.000693293
0.000860999
0.00100264
0.00112165
0.00122208
0.00130789
0.00138243
0.00144856
0.0015087
0.00156487
0.00161874
0.00167167
0.00172472
0.0017787
0.00183418
0.00189153
0.00195096
0.00201255
0.00207629
0.00214207
0.00220976
0.00227917
0.00235011
0.00242236
0.00249573
0.00257001
0.00264502
0.00272058
0.00279652
0.00287269
0.00294894
0.00302516
0.00310124
0.00317708
0.00325259
0.00332771
0.00340238
0.00347654
0.00355015
0.00362319
0.00369565
0.0037675
0.00383875
0.00390939
0.00397945
0.00404892
0.00411784
0.00418621
0.00425408
0.00432148
0.00438842
0.00445494
0.00452105
0.00458677
0.00465211
0.00471707
0.00478165
0.00484586
0.00490968
0.00497307
0.00503603
0.00509849
0.00516042
0.00522175
0.00528242
0.00534234
0.00540144
0.00545961
0.00551675
0.00557276
0.0056275
0.00568087
0.00573273
0.00578296
0.00583144
0.00587802
0.00592259
0.00596504
0.00600523
0.00604308
0.00607847
0.00611133
0.00614156
0.00616912
0.00619393
0.00621597
0.0062352
0.0062516
0.00626517
0.00627593
0.00628389
0.0062891
0.00629161
0.00629149
0.00628881
0.00628348
0.00627558
0.00626542
0.0062533
0.00623916
0.00622296
0.0062048
0.00618479
0.00616307
0.00613979
0.00611513
0.00608925
0.00606233
0.00603456
0.00600612
0.00597719
0.00594799
0.00591872
0.00588959
0.00586079
0.00583251
0.0058049
0.00577809
0.00575216
0.00572715
0.00570305
0.00567977
0.00565719
0.00563515
0.00561351
0.00559186
0.00556992
0.00554746
0.00552424
0.00549998
0.00547443
0.00544733
0.00541867
0.00538836
0.00535628
0.00532233
0.00528648
0.00524872
0.00520906
0.00516758
0.00512436
0.00507952
0.00503317
0.00498551
0.00493669
0.0048869
0.00483623
0.00478489
0.00473305
0.00468093
0.00462878
0.00457693
0.00452555
0.00447466
0.00442435
0.00437471
0.00432592
0.00427815
0.00423155
0.0041862
0.0041422
0.00409976
0.00405934
0.00402222
0.00398804
0.00395619
0.00392625
0.00389789
0.00387087
0.00384498
0.00382006
0.00379596
0.00377248
0.00374906
0.00372542
0.00370162
0.00367148
7.21872e-05
0.000278056
0.000506998
0.000711751
0.000886365
0.00103483
0.00116068
0.00126773
0.00135984
0.0014403
0.0015119
0.001577
0.00163758
0.00169526
0.00175137
0.00180696
0.00186284
0.0019196
0.00197765
0.00203725
0.00209852
0.0021615
0.00222613
0.00229233
0.00235996
0.00242888
0.0024989
0.00256989
0.00264169
0.00271416
0.00278717
0.00286056
0.00293419
0.00300795
0.00308173
0.00315545
0.00322903
0.00330239
0.00337546
0.0034482
0.00352055
0.00359249
0.003664
0.00373507
0.00380569
0.00387588
0.00394563
0.00401497
0.00408391
0.00415247
0.00422069
0.0042886
0.00435628
0.00442374
0.00449101
0.00455811
0.00462506
0.00469187
0.00475856