/*--------------------------------*- C++ -*----------------------------------*\
  =========                 |
  \\      /  F ield         | OpenFOAM: The Open Source CFD Toolbox
   \\    /   O peration     | Website:  https://openfoam.org
    \\  /    A nd           | Version:  8
     \\/     M anipulation  |
\*---------------------------------------------------------------------------*/
/*   Windows 32 and 64 bit porting by blueCAPE: http://www.bluecape.com.pt   *\
|  Based on Windows porting (2.0.x v4) by Symscape: http://www.symscape.com   |
\*---------------------------------------------------------------------------*/
FoamFile
{
    version     2.0;
    format      ascii;
    class       volScalarField;
    location    "100";
    object      p;
}
// * * * * * * * * * * * * * * * * * * * * * * * * * * * * * * * * * * * * * //

dimensions      [0 2 -2 0 0 0 0];

internalField   nonuniform List<scalar> 
12225
(
-2.17408
-4.36248
-5.4618
-5.78151
-5.96155
-6.12897
-6.25853
-6.35114
-6.42439
-6.48735
-6.54168
-6.589
-6.62833
-6.65945
-6.68064
-6.67934
-6.67295
-6.5219
-5.33758
-6.10574
-6.26559
-6.17237
-6.15863
-6.22492
-6.30045
-6.36365
-6.41996
-6.47306
-6.52211
-6.56567
-6.60351
-6.63417
-6.65765
-6.66343
-6.67269
-6.62471
-5.73875
-5.72349
-5.85019
-5.92759
-6.02132
-6.13995
-6.24515
-6.3275
-6.39609
-6.45728
-6.51205
-6.55996
-6.60173
-6.63641
-6.6651
-6.68175
-6.70648
-6.71769
-5.61682
-5.55968
-5.80058
-5.95801
-6.05859
-6.16326
-6.25898
-6.3366
-6.40226
-6.46141
-6.51495
-6.5625
-6.60473
-6.6412
-6.67354
-6.69994
-6.73586
-6.78047
-5.60653
-5.63073
-5.85814
-5.99883
-6.08128
-6.17184
-6.26117
-6.33656
-6.40118
-6.45972
-6.51322
-6.5614
-6.605
-6.64417
-6.68089
-6.71594
-6.76068
-6.82017
-5.66457
-5.71328
-5.88693
-6.00996
-6.09036
-6.17676
-6.26301
-6.33732
-6.40155
-6.45988
-6.51354
-6.56251
-6.60754
-6.64931
-6.68994
-6.73146
-6.78198
-6.84696
-5.72501
-5.76903
-5.9036
-6.01908
-6.10179
-6.18457
-6.2668
-6.3394
-6.403
-6.461
-6.51475
-6.56443
-6.61081
-6.6549
-6.69877
-6.74484
-6.79869
-6.86443
-5.77868
-5.8161
-5.92547
-6.03298
-6.11502
-6.19334
-6.2712
-6.34185
-6.40471
-6.46235
-6.51615
-6.56649
-6.61411
-6.66017
-6.70656
-6.75553
-6.81079
-6.87481
-5.82858
-5.8615
-5.95187
-6.04911
-6.1283
-6.2025
-6.27627
-6.3448
-6.40676
-6.46395
-6.51771
-6.56857
-6.61721
-6.66476
-6.71288
-6.76338
-6.81861
-6.87972
-5.87584
-5.90488
-5.9799
-6.06645
-6.14186
-6.21238
-6.28229
-6.34845
-6.40926
-6.46586
-6.51946
-6.57061
-6.61994
-6.66847
-6.71753
-6.76847
-6.82268
-6.88041
-5.92039
-5.94571
-6.00845
-6.08504
-6.15603
-6.22299
-6.28921
-6.35284
-6.41228
-6.46814
-6.52139
-6.57259
-6.62226
-6.67124
-6.72056
-6.77112
-6.82368
-6.87801
-5.95868
-5.98084
-6.03464
-6.10299
-6.16951
-6.23317
-6.2962
-6.35745
-6.41547
-6.47048
-6.52323
-6.57421
-6.62387
-6.67282
-6.72185
-6.77154
-6.82229
-6.87365
-5.99409
-6.01363
-6.06012
-6.12112
-6.18313
-6.24354
-6.30355
-6.36243
-6.41895
-6.47298
-6.52506
-6.57562
-6.62498
-6.67361
-6.72198
-6.7705
-6.8193
-6.86792
-6.03128
-6.04832
-6.08808
-6.1418
-6.19879
-6.25555
-6.3123
-6.36854
-6.42323
-6.47602
-6.52714
-6.57694
-6.62566
-6.67356
-6.72088
-6.76779
-6.81432
-6.86002
-6.06902
-6.08369
-6.11752
-6.16442
-6.21614
-6.26895
-6.32227
-6.37562
-6.42818
-6.4794
-6.52925
-6.57787
-6.62549
-6.67219
-6.71805
-6.76299
-6.807
-6.84973
-6.10538
-6.11794
-6.14679
-6.18769
-6.23426
-6.28303
-6.3329
-6.38326
-6.4334
-6.48275
-6.53098
-6.57808
-6.62409
-6.66915
-6.71312
-6.75589
-6.79726
-6.83712
-6.13745
-6.14831
-6.17329
-6.20932
-6.25136
-6.29635
-6.34299
-6.39047
-6.43809
-6.48532
-6.5317
-6.57694
-6.62104
-6.66404
-6.70587
-6.74629
-6.7851
-6.82219
-6.16089
-6.17058
-6.19296
-6.22564
-6.26436
-6.30642
-6.35046
-6.39552
-6.44089
-6.48603
-6.53048
-6.5738
-6.61587
-6.6567
-6.69628
-6.73436
-6.77077
-6.80537
-6.16875
-6.178
-6.19943
-6.23086
-6.2683
-6.30907
-6.35179
-6.39549
-6.43944
-6.48306
-6.52593
-6.56757
-6.60784
-6.64671
-6.68423
-6.72019
-6.75445
-6.78693
-6.15348
-6.16336
-6.18622
-6.21959
-6.25896
-6.30113
-6.34474
-6.38893
-6.43311
-6.47658
-6.51902
-6.55996
-6.5994
-6.6372
-6.67356
-6.70816
-6.74106
-6.77216
-6.12719
-6.1381
-6.16364
-6.20095
-6.24406
-6.28906
-6.33473
-6.38061
-6.42591
-6.47006
-6.51265
-6.55359
-6.59274
-6.63024
-6.66593
-6.69989
-6.7319
-6.76233
-6.09238
-6.10431
-6.13394
-6.1778
-6.22641
-6.27483
-6.32318
-6.37148
-6.41868
-6.46393
-6.5071
-6.54827
-6.58751
-6.62486
-6.66026
-6.69373
-6.72527
-6.75517
-6.05212
-6.06413
-6.09886
-6.15239
-6.20827
-6.26064
-6.31198
-6.36294
-6.41206
-6.45853
-6.50248
-6.54413
-6.58366
-6.621
-6.65628
-6.68943
-6.72072
-6.75032
-6.00861
-6.01971
-6.06175
-6.12641
-6.18892
-6.24602
-6.30207
-6.35639
-6.40718
-6.45449
-6.49905
-6.54116
-6.58086
-6.61822
-6.65329
-6.68625
-6.71727
-6.74668
-5.96182
-5.96744
-6.03038
-6.10882
-6.17105
-6.22969
-6.29128
-6.35012
-6.40311
-6.45157
-6.49694
-6.53959
-6.57951
-6.61685
-6.65178
-6.68456
-6.71539
-6.74471
-5.9186
-5.88238
-5.99219
-6.10344
-6.16598
-6.22157
-6.28417
-6.34441
-6.39811
-6.44719
-6.49323
-6.53638
-6.57657
-6.61401
-6.64897
-6.68175
-6.71258
-6.74184
-5.93288
-5.77405
-5.90321
-6.05754
-6.14802
-6.21968
-6.28894
-6.35031
-6.40357
-6.45221
-6.49778
-6.5404
-6.57996
-6.61676
-6.65111
-6.68334
-6.71375
-6.74271
-6.0561
-5.87583
-5.89028
-5.9626
-6.05132
-6.15088
-6.24191
-6.31612
-6.37827
-6.43373
-6.48434
-6.53046
-6.57253
-6.61114
-6.64675
-6.67988
-6.71107
-6.74117
-5.76349
-6.35466
-6.4438
-6.31978
-6.26574
-6.29322
-6.34056
-6.38425
-6.42624
-6.46872
-6.5105
-6.55017
-6.58743
-6.6223
-6.65475
-6.68506
-6.71357
-6.74226
-2.77417
-4.53759
-5.54253
-5.84196
-5.99141
-6.13532
-6.24972
-6.33115
-6.3958
-6.45295
-6.50445
-6.55081
-6.59281
-6.63118
-6.66634
-6.69821
-6.72681
-6.75051
-8.09423
-8.09227
-8.09043
-8.09235
-8.09611
-8.10073
-8.10627
-8.11232
-8.11835
-8.12389
-8.1292
-8.13507
-8.14176
-8.14838
-8.1541
-8.16028
-8.17009
-8.18373
-8.20096
-8.22001
-8.23545
-8.24834
-8.26746
-8.29229
-8.31921
-8.34861
-8.38057
-8.41494
-8.45161
-8.49029
-8.53074
-8.57253
-8.61533
-8.65868
-8.70218
-8.74539
-8.78794
-8.82944
-8.86958
-8.90806
-8.94464
-8.97912
-9.01132
-9.04114
-9.06844
-9.09318
-9.11526
-9.1347
-9.1514
-9.16542
-9.17669
-9.18531
-9.1912
-9.19447
-9.19502
-9.19304
-9.18843
-9.18134
-9.17164
-9.15959
-9.14505
-9.12828
-9.10911
-9.08788
-9.06438
-9.03899
-9.0115
-8.98231
-8.95119
-8.91859
-8.88428
-8.84869
-8.81155
-8.77334
-8.73381
-8.69346
-8.65198
-8.6098
-8.5666
-8.52292
-8.47833
-8.43323
-8.3871
-8.34039
-8.29243
-8.24363
-8.19328
-8.14139
-8.08698
-8.02957
-7.96929
-7.90561
-7.83803
-7.76591
-7.68854
-7.60513
-7.51507
-7.41747
-7.31145
-7.19576
-7.06931
-6.93075
-6.77863
-6.61144
-6.42744
-6.2251
-6.00283
-5.75975
-5.49464
-5.20648
-4.89398
-4.55621
-4.19211
-3.80126
-3.38304
-2.9374
-2.46425
-1.96415
-1.43772
-0.886187
-0.31094
0.286239
0.903353
1.53785
2.18688
2.84711
3.51509
4.1871
4.85941
5.52826
6.18997
6.84102
7.47805
8.09801
8.69812
9.27598
9.82948
10.357
10.8572
11.3294
11.7732
12.1886
12.5763
12.937
13.272
13.5824
13.8689
14.132
14.3726
14.5918
14.7909
14.9713
15.1342
15.281
15.4129
15.5311
15.6369
15.7313
15.8153
15.8899
15.956
16.0143
16.0657
16.1108
16.1502
16.1846
16.2146
16.2407
16.2634
16.2833
16.3011
16.3172
16.3328
16.3489
16.3673
16.391
16.4268
16.4818
16.5841
16.7223
-8.09282
-8.09159
-8.09032
-8.09223
-8.09555
-8.09897
-8.10242
-8.10592
-8.10912
-8.11184
-8.11432
-8.11725
-8.12064
-8.1243
-8.12824
-8.13405
-8.14191
-8.15028
-8.15891
-8.16752
-8.17774
-8.19553
-8.22033
-8.24449
-8.27006
-8.29834
-8.32951
-8.36342
-8.39993
-8.43874
-8.47954
-8.52191
-8.56545
-8.60965
-8.65407
-8.69822
-8.74168
-8.78405
-8.82499
-8.86421
-8.90145
-8.93652
-8.96926
-8.99955
-9.02728
-9.05241
-9.07486
-9.09463
-9.11166
-9.12597
-9.13753
-9.14641
-9.15254
-9.15601
-9.15678
-9.15494
-9.15046
-9.14342
-9.13379
-9.12171
-9.10713
-9.09021
-9.07089
-9.04937
-9.0256
-8.9998
-8.97192
-8.94219
-8.91057
-8.8773
-8.84237
-8.80602
-8.7682
-8.72918
-8.68895
-8.64775
-8.6055
-8.56245
-8.51853
-8.47402
-8.42877
-8.38298
-8.33646
-8.28937
-8.24134
-8.19251
-8.1425
-8.09113
-8.03759
-7.9818
-7.92352
-7.86242
-7.79771
-7.72847
-7.65417
-7.57414
-7.48759
-7.39354
-7.29097
-7.17883
-7.05601
-6.9212
-6.77308
-6.61004
-6.43076
-6.23377
-6.01796
-5.78188
-5.52433
-5.2441
-4.94
-4.61089
-4.25596
-3.87447
-3.46598
-3.03012
-2.56684
-2.07648
-1.55976
-1.0177
-0.451595
0.136924
0.745982
1.37318
2.01576
2.67051
3.33406
4.00274
4.67288
5.34069
6.00248
6.65466
7.2938
7.91675
8.52064
9.10292
9.66142
10.1944
10.7004
11.1787
11.6288
12.0506
12.4444
12.8109
13.1509
13.4657
13.7565
14.024
14.2693
14.4933
14.6973
14.8825
15.0501
15.2015
15.3379
15.4605
15.5705
15.6688
15.7566
15.8348
15.9043
15.9659
16.0203
16.0682
16.1103
16.1473
16.1796
16.208
16.2328
16.2547
16.2743
16.2924
16.3097
16.3274
16.3475
16.3726
16.4078
16.4583
16.549
16.6625
-8.08604
-8.0868
-8.08732
-8.08985
-8.0929
-8.09526
-8.09687
-8.09788
-8.09835
-8.0984
-8.09838
-8.09871
-8.09956
-8.10095
-8.10326
-8.10749
-8.11411
-8.12244
-8.13203
-8.14248
-8.15412
-8.16887
-8.18801
-8.21005
-8.23526
-8.26384
-8.29558
-8.33015
-8.36722
-8.40636
-8.44719
-8.48925
-8.53214
-8.5754
-8.61865
-8.6615
-8.7036
-8.74462
-8.78428
-8.82233
-8.85853
-8.89272
-8.92473
-8.95444
-8.98174
-9.00654
-9.02878
-9.04842
-9.0654
-9.07972
-9.09134
-9.1003
-9.10655
-9.11013
-9.11102
-9.10929
-9.1049
-9.09792
-9.08836
-9.07628
-9.06169
-9.04468
-9.02526
-9.00355
-8.97958
-8.95348
-8.92529
-8.89515
-8.86311
-8.82934
-8.7939
-8.75696
-8.71858
-8.67894
-8.63812
-8.59628
-8.55347
-8.50981
-8.46539
-8.42032
-8.37462
-8.32838
-8.2816
-8.23431
-8.18634
-8.13767
-8.08815
-8.03741
-7.98505
-7.93072
-7.87446
-7.81575
-7.75377
-7.68791
-7.61736
-7.54156
-7.45953
-7.37041
-7.27304
-7.16641
-7.04932
-6.92051
-6.77869
-6.6223
-6.45013
-6.26075
-6.05309
-5.82566
-5.57731
-5.30658
-5.0124
-4.69353
-4.34928
-3.97874
-3.58146
-3.15687
-2.70507
-2.22621
-1.72091
-1.19006
-0.634916
-0.056919
0.54211
1.15996
1.79397
2.4411
3.09803
3.76122
4.42704
5.09172
5.7516
6.40302
7.04254
7.6669
8.2732
8.8588
9.42152
9.95953
10.4715
10.9565
11.414
11.844
12.2466
12.6224
12.9721
13.2966
13.5968
13.8735
14.1276
14.3602
14.5724
14.7654
14.9405
15.099
15.242
15.3709
15.4867
15.5906
15.6836
15.7666
15.8405
15.9063
15.9646
16.0161
16.0616
16.1018
16.1371
16.1682
16.1956
16.2199
16.2417
16.2619
16.2811
16.3007
16.3223
16.3482
16.3828
16.4289
16.5045
16.5804
-8.07102
-8.07505
-8.07896
-8.08327
-8.08703
-8.0895
-8.09069
-8.09083
-8.09007
-8.08866
-8.08701
-8.0856
-8.08479
-8.08487
-8.08626
-8.08956
-8.09526
-8.10336
-8.11372
-8.12612
-8.1406
-8.15753
-8.17738
-8.20013
-8.22587
-8.25457
-8.2861
-8.32018
-8.35652
-8.39476
-8.43453
-8.47544
-8.51711
-8.55914
-8.60116
-8.64279
-8.6837
-8.72358
-8.76215
-8.79916
-8.83441
-8.86771
-8.8989
-8.92786
-8.95447
-8.97866
-9.00034
-9.01949
-9.03602
-9.04994
-9.0612
-9.06981
-9.07574
-9.07902
-9.07963
-9.0776
-9.07292
-9.06564
-9.05576
-9.04335
-9.02842
-9.01104
-8.99124
-8.96912
-8.94471
-8.91814
-8.88947
-8.85882
-8.82627
-8.79196
-8.75599
-8.71851
-8.67963
-8.63949
-8.59823
-8.55598
-8.51283
-8.4689
-8.4243
-8.37912
-8.33341
-8.28725
-8.24066
-8.19366
-8.14616
-8.0981
-8.04935
-7.99966
-7.94851
-7.89593
-7.84159
-7.78502
-7.72564
-7.66268
-7.5955
-7.52332
-7.44531
-7.36047
-7.26777
-7.16609
-7.05423
-6.93093
-6.79482
-6.64453
-6.47871
-6.29613
-6.09549
-5.87548
-5.63471
-5.37186
-5.08571
-4.77514
-4.4393
-4.07737
-3.68877
-3.27304
-2.8301
-2.36006
-1.86341
-1.341
-0.794002
-0.223802
0.367839
0.978794
1.60648
2.24795
2.89997
3.55907
4.22164
4.88396
5.54234
6.19309
6.83275
7.45802
8.06595
8.65391
9.21971
9.76156
10.2782
10.7686
11.2324
11.6692
12.0791
12.4625
12.8199
13.1522
13.4599
13.744
14.0053
14.2448
14.4637
14.6632
14.8445
15.0088
15.1575
15.2917
15.4125
15.5211
15.6185
15.7056
15.7834
15.8527
15.9143
15.969
16.0174
16.0603
16.0981
16.1315
16.1611
16.1874
16.2111
16.2329
16.2536
16.2743
16.2966
16.3222
16.3546
16.3943
16.4531
16.4963
-8.04835
-8.05605
-8.06461
-8.07181
-8.07721
-8.08066
-8.08242
-8.08283
-8.08222
-8.08091
-8.07932
-8.07792
-8.07717
-8.07751
-8.07936
-8.08316
-8.08928
-8.09786
-8.10895
-8.12253
-8.13865
-8.15737
-8.17879
-8.20291
-8.22974
-8.2592
-8.29115
-8.32534
-8.3615
-8.39929
-8.43839
-8.47841
-8.51902
-8.55983
-8.60053
-8.64078
-8.68027
-8.71872
-8.75589
-8.79156
-8.82551
-8.85758
-8.88762
-8.91551
-8.94112
-8.96439
-8.98522
-9.00356
-9.01935
-9.03258
-9.04317
-9.05116
-9.05648
-9.05916
-9.05918
-9.05656
-9.05128
-9.0434
-9.0329
-9.01986
-9.00427
-8.98622
-8.96573
-8.94289
-8.91777
-8.89046
-8.86105
-8.82964
-8.79635
-8.7613
-8.72462
-8.68646
-8.64694
-8.60624
-8.56447
-8.5218
-8.47835
-8.43425
-8.38961
-8.34455
-8.29912
-8.25341
-8.20745
-8.16125
-8.11476
-8.06791
-8.02059
-7.97252
-7.92347
-7.87295
-7.82121
-7.76737
-7.71102
-7.65135
-7.58783
-7.51954
-7.44576
-7.36541
-7.27753
-7.18096
-7.07447
-6.95683
-6.8265
-6.68231
-6.52269
-6.34663
-6.15252
-5.93927
-5.70519
-5.44921
-5.16984
-4.8662
-4.53712
-4.18204
-3.80012
-3.39109
-2.95458
-2.49077
-1.99997
-1.48309
-0.941157
-0.375585
0.211949
0.819287
1.44389
2.08287
2.73298
3.39082
4.05271
4.71499
5.37384
6.02564
6.6668
7.29408
7.90444
8.49531
9.0645
9.61027
10.1313
10.6265
11.0953
11.5374
11.9528
12.3418
12.7048
13.0424
13.3555
13.6447
13.9111
14.1555
14.3792
14.5833
14.7692
14.9379
15.0907
15.2289
15.3535
15.4657
15.5664
15.6568
15.7375
15.8096
15.8738
15.9309
15.9815
16.0263
16.0661
16.1012
16.1324
16.1602
16.1852
16.2081
16.2296
16.2507
16.2727
16.2969
16.3257
16.3579
16.4015
16.4184
-8.02174
-8.03316
-8.04709
-8.05782
-8.06553
-8.07073
-8.07386
-8.07541
-8.07585
-8.07557
-8.07505
-8.07473
-8.07511
-8.07664
-8.07975
-8.0848
-8.09212
-8.10187
-8.11417
-8.12905
-8.14653
-8.16663
-8.18935
-8.21463
-8.24241
-8.27257
-8.30491
-8.3392
-8.37516
-8.41248
-8.45084
-8.48993
-8.52942
-8.569
-8.60835
-8.64719
-8.68525
-8.72227
-8.75802
-8.79229
-8.82491
-8.8557
-8.88451
-8.91124
-8.93576
-8.95799
-8.97783
-8.99524
-9.01014
-9.02251
-9.03228
-9.03945
-9.04398
-9.04587
-9.04509
-9.04166
-9.03557
-9.02686
-9.01551
-9.00158
-8.9851
-8.96612
-8.94469
-8.92091
-8.89481
-8.86652
-8.83613
-8.80375
-8.7695
-8.73352
-8.69594
-8.65693
-8.61664
-8.57522
-8.53285
-8.48969
-8.44589
-8.40159
-8.35694
-8.31205
-8.26702
-8.22192
-8.17682
-8.13173
-8.08661
-8.04139
-7.99598
-7.95017
-7.90342
-7.856
-7.80719
-7.75679
-7.70402
-7.64834
-7.58897
-7.5252
-7.45612
-7.38079
-7.29818
-7.20714
-7.10647
-6.99474
-6.8706
-6.73262
-6.57953
-6.40995
-6.22253
-6.01583
-5.7884
-5.53886
-5.26601
-4.96873
-4.646
-4.29699
-3.92098
-3.51749
-3.08624
-2.62726
-2.1409
-1.62793
-1.08934
-0.526496
0.058903
0.664692
1.28835
1.92695
2.57729
3.23589
3.89908
4.56312
5.22419
5.87858
6.5227
7.15327
7.76727
8.36211
8.9356
9.4859
10.0116
10.5116
10.9853
11.4323
11.8525
12.2461
12.6136
12.9555
13.2728
13.566
13.8362
14.0844
14.3118
14.5195
14.7087
14.8808
15.0368
15.1781
15.3057
15.4207
15.5241
15.617
15.7002
15.7745
15.8408
15.8998
15.9522
15.9986
16.0398
16.0763
16.1087
16.1375
16.1634
16.1868
16.2086
16.2295
16.2505
16.2725
16.2969
16.3215
16.3518
16.3478
-7.99549
-8.01021
-8.02923
-8.04344
-8.05366
-8.06099
-8.06599
-8.06924
-8.07127
-8.07259
-8.07368
-8.075
-8.07705
-8.08024
-8.08501
-8.09166
-8.10052
-8.11174
-8.12546
-8.14172
-8.16055
-8.1819
-8.20574
-8.23197
-8.26049
-8.2911
-8.32364
-8.35786
-8.3935
-8.43027
-8.4679
-8.50609
-8.54454
-8.58296
-8.62108
-8.65863
-8.69536
-8.73103
-8.76544
-8.7984
-8.82972
-8.85926
-8.88687
-8.91243
-8.93582
-8.95697
-8.97577
-8.99218
-9.0061
-9.01751
-9.02633
-9.03257
-9.03615
-9.0371
-9.03536
-9.03096
-9.02386
-9.01412
-9.00171
-8.9867
-8.96909
-8.94897
-8.92637
-8.90139
-8.87409
-8.8446
-8.81299
-8.77943
-8.74401
-8.70691
-8.66827
-8.62826
-8.58705
-8.54483
-8.50177
-8.45806
-8.41387
-8.36937
-8.32472
-8.28005
-8.23549
-8.19112
-8.14703
-8.10324
-8.05971
-8.01642
-7.97325
-7.92992
-7.88627
-7.84187
-7.79671
-7.7502
-7.70154
-7.65031
-7.59563
-7.53685
-7.47297
-7.40312
-7.32623
-7.2411
-7.14655
-7.04102
-6.92327
-6.79169
-6.64522
-6.48217
-6.30139
-6.10114
-5.88027
-5.63707
-5.37055
-5.07933
-4.7626
-4.41917
-4.04848
-3.64982
-3.22308
-2.76808
-2.28527
-1.77517
-1.23885
-0.677559
-0.0930861
0.512429
1.13643
1.77597
2.42783
3.08844
3.75417
4.4211
5.08549
5.74349
6.39157
7.02635
7.64488
8.24444
8.82279
9.37805
9.90871
10.4137
10.8922
11.3438
11.7684
12.1663
12.5378
12.8836
13.2044
13.501
13.7745
14.0258
14.2561
14.4667
14.6587
14.8334
14.992
15.1358
15.2657
15.383
15.4887
15.5837
15.6688
15.7451
15.8132
15.8738
15.9277
15.9755
16.0179
16.0555
16.0888
16.1183
16.1446
16.1683
16.19
16.2102
16.2297
16.249
16.2687
16.2858
16.3046
16.2838
-7.97314
-7.99057
-8.0138
-8.03097
-8.04349
-8.05296
-8.05997
-8.0651
-8.06896
-8.0721
-8.07503
-8.07821
-8.08212
-8.08713
-8.09367
-8.10202
-8.11246
-8.12516
-8.14025
-8.15776
-8.17774
-8.20011
-8.22483
-8.25176
-8.28077
-8.31167
-8.34428
-8.37834
-8.41363
-8.44987
-8.48679
-8.52413
-8.56161
-8.59897
-8.63596
-8.67232
-8.70783
-8.74227
-8.77546
-8.8072
-8.83732
-8.86569
-8.89216
-8.91661
-8.93892
-8.95902
-8.97679
-8.99218
-9.0051
-9.01552
-9.02335
-9.02858
-9.03114
-9.03105
-9.02823
-9.02273
-9.01449
-9.00356
-8.98992
-8.97363
-8.95472
-8.93325
-8.90927
-8.88288
-8.85416
-8.82324
-8.79022
-8.75525
-8.71848
-8.68007
-8.64018
-8.59903
-8.55678
-8.51365
-8.46983
-8.42553
-8.38094
-8.33625
-8.29165
-8.24729
-8.2033
-8.15981
-8.11691
-8.07462
-8.03294
-7.99183
-7.95118
-7.91078
-7.87025
-7.82964
-7.78843
-7.7461
-7.70208
-7.65567
-7.6062
-7.55281
-7.49463
-7.43068
-7.35989
-7.28107
-7.19285
-7.09386
-6.98257
-6.85766
-6.71771
-6.56134
-6.38703
-6.19334
-5.9788
-5.74195
-5.48143
-5.19608
-4.88481
-4.54657
-4.18056
-3.78622
-3.36326
-2.91159
-2.43147
-1.92343
-1.38844
-0.827791
-0.243286
0.362913
0.988207
1.62964
2.28392
2.94746
3.61652
4.2872
4.95565
5.61804
6.27078
6.91045
7.534
8.13869
8.72218
9.28255
9.81822
10.328
10.8112
11.2673
11.6961
12.0979
12.4731
12.8223
13.1463
13.4459
13.7221
13.9761
14.209
14.422
14.6163
14.7933
14.954
15.0998
15.2317
15.3509
15.4584
15.5551
15.642
15.7198
15.7894
15.8515
15.9067
15.9558
15.9992
16.0377
16.0717
16.1018
16.1284
16.1521
16.1733
16.1925
16.2102
16.2265
16.2414
16.2514
16.2603
16.2259
-7.95713
-7.97656
-8.00271
-8.02204
-8.03642
-8.04774
-8.05659
-8.06351
-8.06917
-8.07411
-8.07886
-8.08386
-8.08957
-8.09634
-8.10456
-8.11448
-8.12639
-8.1404
-8.15667
-8.17522
-8.19609
-8.21921
-8.24452
-8.27187
-8.30113
-8.33212
-8.36463
-8.39844
-8.4333
-8.46898
-8.50522
-8.54176
-8.57835
-8.61475
-8.65072
-8.68603
-8.72047
-8.75383
-8.78593
-8.81659
-8.84566
-8.87298
-8.89843
-8.92187
-8.94321
-8.96233
-8.97913
-8.99356
-9.00551
-9.01494
-9.02176
-9.02597
-9.02747
-9.02626
-9.0223
-9.01559
-9.00609
-8.99384
-8.97883
-8.96111
-8.94071
-8.91771
-8.89215
-8.86416
-8.83381
-8.80126
-8.76661
-8.73004
-8.69171
-8.6518
-8.61051
-8.56805
-8.52463
-8.48048
-8.43582
-8.39088
-8.34588
-8.30103
-8.25652
-8.21255
-8.16927
-8.12681
-8.08528
-8.04471
-8.00512
-7.96647
-7.92866
-7.89144
-7.85468
-7.81786
-7.78107
-7.74336
-7.70434
-7.66319
-7.61931
-7.57174
-7.51965
-7.46203
-7.39771
-7.32554
-7.24393
-7.15166
-7.04703
-6.92894
-6.79564
-6.64604
-6.47828
-6.29115
-6.08285
-5.85217
-5.59744
-5.31768
-5.01147
-4.67797
-4.31614
-3.92559
-3.50579
-3.05679
-2.57861
-2.07187
-1.53742
-0.976658
-0.391349
0.216278
0.843594
1.48763
2.14499
2.81212
3.48514
4.16023
4.83338
5.50081
6.15874
6.80377
7.43271
8.04278
8.63158
9.19709
9.73775
10.2523
10.74
11.2002
11.633
12.0385
12.417
12.7693
13.0961
13.3984
13.6771
13.9334
14.1685
14.3836
14.5799
14.7587
14.9213
15.0688
15.2024
15.3232
15.4321
15.5303
15.6186
15.6978
15.7687
15.832
15.8884
15.9385
15.9829
16.0222
16.0568
16.0873
16.1141
16.1375
16.1581
16.1761
16.1918
16.2049
16.2152
16.2185
16.2189
16.1736
-7.94878
-7.96936
-7.997
-8.01757
-8.03321
-8.04591
-8.05623
-8.06465
-8.07185
-8.07838
-8.08474
-8.09134
-8.09864
-8.10694
-8.1166
-8.12786
-8.14096
-8.15604
-8.17323
-8.19254
-8.21403
-8.2376
-8.26322
-8.29073
-8.32002
-8.35088
-8.38314
-8.41657
-8.45094
-8.48603
-8.52158
-8.55737
-8.59315
-8.62869
-8.66377
-8.69817
-8.73169
-8.76413
-8.79532
-8.82507
-8.85325
-8.87968
-8.90425
-8.92683
-8.9473
-8.96556
-8.98149
-8.99503
-9.00606
-9.01455
-9.02039
-9.02356
-9.02397
-9.02162
-9.01644
-9.00844
-8.99758
-8.98389
-8.96736
-8.94806
-8.926
-8.90128
-8.87396
-8.84416
-8.81199
-8.77759
-8.74111
-8.70274
-8.66266
-8.62108
-8.57821
-8.53429
-8.48957
-8.4443
-8.39871
-8.35309
-8.30765
-8.26264
-8.21829
-8.17479
-8.13233
-8.09106
-8.05108
-8.01246
-7.97521
-7.93929
-7.90462
-7.871
-7.83797
-7.80573
-7.77345
-7.74083
-7.70709
-7.67164
-7.63366
-7.59231
-7.54668
-7.49571
-7.43824
-7.37286
-7.29819
-7.21271
-7.11507
-7.0038
-6.87748
-6.73457
-6.57353
-6.39276
-6.19073
-5.9659
-5.71685
-5.44224
-5.14084
-4.81158
-4.45358
-4.06626
-3.64919
-3.20222
-2.72544
-2.21937
-1.68493
-1.12352
-0.536924
0.0726024
0.702407
1.34946
2.0104
2.68161
3.35918
4.03921
4.71765
5.39058
6.05416
6.70486
7.33944
7.95503
8.54918
9.11983
9.66535
10.1845
10.6764
11.1407
11.5771
11.9859
12.3676
12.7227
13.052
13.3567
13.6376
13.8959
14.1329
14.3498
14.5478
14.7282
14.8924
15.0414
15.1765
15.2986
15.4089
15.5084
15.5979
15.6783
15.7503
15.8147
15.8721
15.9232
15.9685
16.0084
16.0436
16.0744
16.1011
16.1243
16.1441
16.1608
16.1743
16.1843
16.1901
16.1873
16.1803
16.1261
-7.94828
-7.96917
-7.99687
-8.01781
-8.03406
-8.04757
-8.05885
-8.06836
-8.07672
-8.08447
-8.0921
-8.09998
-8.10852
-8.11802
-8.1288
-8.14106
-8.15505
-8.17087
-8.18867
-8.20844
-8.23024
-8.254
-8.27967
-8.3071
-8.3362
-8.36676
-8.39863
-8.43157
-8.46539
-8.49986
-8.53475
-8.56983
-8.60488
-8.63967
-8.67399
-8.70763
-8.74039
-8.77208
-8.80253
-8.83155
-8.859
-8.88472
-8.90859
-8.93045
-8.9502
-8.96771
-8.98288
-8.99562
-9.00581
-9.0134
-9.01828
-9.02042
-9.01973
-9.01619
-9.00972
-9.00034
-8.98801
-8.97275
-8.95456
-8.93351
-8.90961
-8.88299
-8.85371
-8.8219
-8.78768
-8.75124
-8.71273
-8.67236
-8.63033
-8.5869
-8.54229
-8.49678
-8.45063
-8.40413
-8.35756
-8.31119
-8.26531
-8.22017
-8.17603
-8.1331
-8.09159
-8.05165
-8.01342
-7.97696
-7.94229
-7.90938
-7.87814
-7.84829
-7.81968
-7.79189
-7.76469
-7.73743
-7.70933
-7.67984
-7.64809
-7.61326
-7.57437
-7.53027
-7.47981
-7.42139
-7.35378
-7.27526
-7.18472
-7.08037
-6.96103
-6.82478
-6.67036
-6.49581
-6.29988
-6.08067
-5.83703
-5.56727
-5.27038
-4.94504
-4.59057
-4.20615
-3.79146
-3.34616
-2.87044
-2.36474
-1.83009
-1.26781
-0.679708
-0.0680137
0.564607
1.21508
1.88008
2.55584
3.23849
3.92391
4.60806
5.28681
5.95629
6.61285
7.25318
7.87434
8.47379
9.04949
9.5997
10.1232
10.6192
11.0872
11.527
11.9389
12.3233
12.681
13.0127
13.3194
13.6022
13.8624
14.1011
14.3195
14.519
14.7009
14.8665
15.0168
15.1532
15.2766
15.3881
15.4887
15.5792
15.6607
15.7337
15.7991
15.8575
15.9094
15.9554
15.996
16.0316
16.0626
16.0893
16.1121
16.1311
16.1463
16.1577
16.1646
16.1661
16.1578
16.1446
16.0831
-7.955
-7.9754
-8.002
-8.0225
-8.03873
-8.05244
-8.06413
-8.07422
-8.08328
-8.09181
-8.10028
-8.10902
-8.11842
-8.12872
-8.14024
-8.15314
-8.16767
-8.1839
-8.20198
-8.2219
-8.24374
-8.26741
-8.29288
-8.32003
-8.34875
-8.37886
-8.41021
-8.44259
-8.47581
-8.50965
-8.5439
-8.57833
-8.61273
-8.64687
-8.68056
-8.71357
-8.74574
-8.77685
-8.80673
-8.8352
-8.86212
-8.8873
-8.91063
-8.93193
-8.95111
-8.96801
-8.98253
-8.99455
-9.00397
-9.0107
-9.01464
-9.01574
-9.01391
-9.00912
-9.0013
-8.99044
-8.97651
-8.95953
-8.93952
-8.91654
-8.89062
-8.8619
-8.83044
-8.79641
-8.75994
-8.72124
-8.68048
-8.63791
-8.59375
-8.54829
-8.50178
-8.45453
-8.40685
-8.35904
-8.31141
-8.26429
-8.21797
-8.17273
-8.12887
-8.08661
-8.04617
-8.00774
-7.97145
-7.93737
-7.90552
-7.87587
-7.84832
-7.82262
-7.79845
-7.77572
-7.75381
-7.7321
-7.70996
-7.68664
-7.66137
-7.63325
-7.60124
-7.56421
-7.52075
-7.46948
-7.40886
-7.33752
-7.25393
-7.15664
-7.04402
-6.9145
-6.7664
-6.59808
-6.4079
-6.19428
-5.95571
-5.69078
-5.39818
-5.0768
-4.72572
-4.34421
-3.93178
-3.4881
-3.01332
-2.5079
-1.97285
-1.40946
-0.819517
-0.205261
0.430592
1.08496
1.75443
2.4352
3.12325
3.8144
4.50448
5.18926
5.86476
6.52723
7.17327
7.79989
8.40453
8.98505
9.53975
10.0674
10.5671
11.0385
11.4815
11.8962
12.2832
12.6431
12.9768
13.2854
13.57
13.8317
14.0719
14.2918
14.4927
14.6758
14.8426
14.9942
15.1317
15.2562
15.3688
15.4705
15.5621
15.6445
15.7185
15.7847
15.844
15.8967
15.9434
15.9846
16.0205
16.0517
16.0783
16.1006
16.1187
16.1326
16.1419
16.1458
16.1434
16.1302
16.1114
16.044
-7.96779
-7.98706
-8.01171
-8.03108
-8.04667
-8.05999
-8.07152
-8.08165
-8.09092
-8.09975
-8.10859
-8.11774
-8.12754
-8.13823
-8.15009
-8.16325
-8.17795
-8.19426
-8.21231
-8.2321
-8.2537
-8.27704
-8.30211
-8.32878
-8.35696
-8.38649
-8.41723
-8.44899
-8.48158
-8.51479
-8.54843
-8.58227
-8.6161
-8.6497
-8.68288
-8.71542
-8.74714
-8.77783
-8.80732
-8.83542
-8.86196
-8.88678
-8.90972
-8.93062
-8.94934
-8.96575
-8.9797
-8.99108
-8.99977
-9.00568
-9.00868
-9.00872
-9.00569
-8.99958
-8.99028
-8.97782
-8.96213
-8.94327
-8.92124
-8.89613
-8.86797
-8.83692
-8.80305
-8.76656
-8.72759
-8.68639
-8.64315
-8.59815
-8.55163
-8.50393
-8.45533
-8.40618
-8.3568
-8.30757
-8.25881
-8.21087
-8.16408
-8.11877
-8.07523
-8.03373
-7.99449
-7.95771
-7.92354
-7.89204
-7.86325
-7.83712
-7.81351
-7.79221
-7.77298
-7.75533
-7.73905
-7.7232
-7.70724
-7.69035
-7.67177
-7.65057
-7.6256
-7.59576
-7.55944
-7.51542
-7.46192
-7.39782
-7.32126
-7.23103
-7.12516
-7.00236
-6.86058
-6.69848
-6.51408
-6.30607
-6.07262
-5.81252
-5.52419
-5.20672
-4.85893
-4.48022
-4.06983
-3.62758
-3.15342
-2.64799
-2.11213
-1.54723
-0.955047
-0.337829
0.301648
0.960278
1.63451
2.32053
3.01413
3.71113
4.40714
5.09795
5.7794
6.44768
7.09929
7.73118
8.34077
8.92584
9.48474
10.0162
10.5194
10.9939
11.4397
11.8569
12.2462
12.6081
12.9437
13.2539
13.54
13.8032
14.0447
14.2658
14.4679
14.6523
14.8202
14.9729
15.1114
15.237
15.3507
15.4533
15.5459
15.6293
15.7042
15.7713
15.8314
15.8848
15.9322
15.9739
16.0102
16.0414
16.0679
16.0898
16.107
16.1195
16.1268
16.1279
16.1219
16.1043
16.0807
16.0085
-7.98533
-8.00302
-8.02516
-8.04284
-8.05725
-8.06963
-8.08046
-8.0901
-8.09904
-8.10766
-8.11637
-8.12543
-8.13519
-8.14582
-8.1576
-8.17064
-8.18515
-8.20119
-8.2189
-8.23827
-8.25939
-8.28218
-8.30664
-8.33267
-8.36018
-8.38904
-8.4191
-8.4502
-8.48214
-8.51473
-8.54777
-8.58105
-8.61437
-8.64753
-8.68032
-8.71251
-8.74392
-8.77434
-8.80359
-8.83146
-8.85779
-8.88237
-8.90506
-8.92566
-8.94403
-8.96001
-8.97345
-8.98421
-8.99217
-8.9972
-8.99919
-8.99806
-8.99371
-8.98609
-8.97512
-8.96083
-8.94316
-8.92217
-8.89786
-8.87033
-8.83964
-8.80594
-8.76935
-8.73006
-8.68828
-8.64424
-8.59821
-8.55047
-8.50133
-8.45113
-8.40022
-8.34896
-8.29775
-8.24697
-8.19698
-8.14819
-8.10094
-8.05561
-8.01247
-7.97187
-7.93399
-7.8991
-7.86728
-7.83866
-7.81324
-7.79094
-7.77168
-7.75516
-7.741
-7.72915
-7.71871
-7.70916
-7.6997
-7.68961
-7.67805
-7.66401
-7.64642
-7.62389
-7.59506
-7.55832
-7.51229
-7.45538
-7.38612
-7.30285
-7.20396
-7.08771
-6.95242
-6.79635
-6.61782
-6.41517
-6.18679
-5.9312
-5.64705
-5.33316
-4.98848
-4.61215
-4.20349
-3.76221
-3.28834
-2.78245
-2.24541
-1.6786
-1.0838
-0.463324
0.180053
0.84309
1.52219
2.21344
2.91259
3.6153
4.31712
5.01371
5.70083
6.37456
7.03137
7.66812
8.28219
8.87139
9.43403
9.96888
10.4751
10.9524
11.4007
11.8201
12.2113
12.5751
12.9123
13.224
13.5114
13.7758
14.0185
14.2408
14.444
14.6295
14.7985
14.9522
15.0919
15.2185
15.3331
15.4368
15.5303
15.6146
15.6905
15.7585
15.8193
15.8735
15.9215
15.9636
16.0002
16.0316
16.058
16.0794
16.0958
16.1069
16.1123
16.1108
16.1015
16.0801
16.0523
15.9763
-8.00631
-8.02215
-8.04147
-8.05706
-8.06981
-8.08074
-8.09033
-8.09894
-8.107
-8.11486
-8.12291
-8.13139
-8.1406
-8.15071
-8.16197
-8.17447
-8.18841
-8.20383
-8.22088
-8.23956
-8.25993
-8.28195
-8.30562
-8.33084
-8.35755
-8.3856
-8.41489
-8.44523
-8.47648
-8.50843
-8.5409
-8.57367
-8.60657
-8.63935
-8.67183
-8.70376
-8.73497
-8.76522
-8.79433
-8.82207
-8.84826
-8.87268
-8.89516
-8.91551
-8.93354
-8.94909
-8.96198
-8.97207
-8.9792
-8.98325
-8.98408
-8.98161
-8.97573
-8.96639
-8.95353
-8.93714
-8.9172
-8.89374
-8.86681
-8.8365
-8.80291
-8.76619
-8.72651
-8.68409
-8.63914
-8.59198
-8.54286
-8.49212
-8.44012
-8.38723
-8.33384
-8.28038
-8.22725
-8.17487
-8.12371
-8.0741
-8.02653
-7.98129
-7.93881
-7.89931
-7.86314
-7.8304
-7.80134
-7.77597
-7.75429
-7.73627
-7.72175
-7.7104
-7.70205
-7.69607
-7.69204
-7.68912
-7.68653
-7.68353
-7.67925
-7.6726
-7.66253
-7.64748
-7.6262
-7.59686
-7.55827
-7.50856
-7.4465
-7.37009
-7.27801
-7.16817
-7.03916
-6.8889
-6.71599
-6.5184
-6.29479
-6.0434
-5.76308
-5.45241
-5.11044
-4.73604
-4.32871
-3.88797
-3.41403
-2.90732
-2.36883
-1.7999
-1.2024
-0.57866
0.0685432
0.735867
1.41968
2.11592
2.82036
3.52843
4.23565
4.9375
5.62971
6.30828
6.96962
7.61059
8.22849
8.8212
9.387
9.92471
10.4335
10.9131
11.3634
11.7848
12.1777
12.5429
12.8815
13.1945
13.4832
13.7487
13.9925
14.2159
14.4202
14.6068
14.7769
14.9316
15.0723
15.2
15.3157
15.4204
15.5149
15.6002
15.677
15.7459
15.8076
15.8625
15.911
15.9536
15.9906
16.0221
16.0483
16.0693
16.0849
16.0948
16.0984
16.0946
16.0824
16.0576
16.0261
15.9471
-8.03051
-8.04442
-8.06085
-8.07405
-8.08467
-8.0936
-8.10135
-8.10828
-8.11481
-8.12128
-8.12804
-8.13532
-8.14341
-8.15243
-8.16263
-8.17407
-8.18695
-8.2013
-8.21725
-8.23481
-8.25406
-8.27494
-8.29749
-8.32159
-8.34722
-8.37424
-8.40255
-8.432
-8.46244
-8.49367
-8.52552
-8.55776
-8.59022
-8.62265
-8.65485
-8.68658
-8.71764
-8.74777
-8.77678
-8.80441
-8.83049
-8.85474
-8.87701
-8.89705
-8.91469
-8.92971
-8.94194
-8.95122
-8.95736
-8.96025
-8.95971
-8.95569
-8.94803
-8.93672
-8.92165
-8.90288
-8.88032
-8.8541
-8.8242
-8.79081
-8.75398
-8.71394
-8.67086
-8.625
-8.57662
-8.52603
-8.47357
-8.41964
-8.36461
-8.30893
-8.253
-8.1973
-8.14227
-8.08843
-8.03615
-7.98595
-7.93826
-7.89343
-7.85189
-7.8139
-7.77978
-7.74969
-7.72382
-7.70215
-7.68472
-7.67152
-7.66222
-7.65662
-7.65426
-7.65479
-7.65746
-7.66146
-7.66604
-7.67038
-7.67353
-7.67447
-7.67189
-7.66447
-7.65057
-7.62872
-7.59729
-7.55479
-7.49954
-7.42995
-7.34423
-7.24068
-7.11747
-6.97285
-6.80504
-6.6123
-6.39295
-6.14551
-5.86856
-5.5608
-5.22105
-4.84831
-4.44192
-4.00157