/*--------------------------------*- C++ -*----------------------------------*\
  =========                 |
  \\      /  F ield         | OpenFOAM: The Open Source CFD Toolbox
   \\    /   O peration     | Website:  https://openfoam.org
    \\  /    A nd           | Version:  8
     \\/     M anipulation  |
\*---------------------------------------------------------------------------*/
/*   Windows 32 and 64 bit porting by blueCAPE: http://www.bluecape.com.pt   *\
|  Based on Windows porting (2.0.x v4) by Symscape: http://www.symscape.com   |
\*---------------------------------------------------------------------------*/
FoamFile
{
    version     2.0;
    format      ascii;
    class       surfaceScalarField;
    location    "100";
    object      phi;
}
// * * * * * * * * * * * * * * * * * * * * * * * * * * * * * * * * * * * * * //

dimensions      [0 3 -1 0 0 0 0];

internalField   nonuniform List<scalar> 
24170
(
3.129e-06
5.94063e-08
3.0466e-06
8.23994e-08
2.97347e-06
7.31238e-08
2.90478e-06
6.86825e-08
2.84037e-06
6.43999e-08
2.78294e-06
5.74271e-08
2.73349e-06
4.94469e-08
2.69136e-06
4.2115e-08
2.65547e-06
3.58883e-08
2.62473e-06
3.0735e-08
2.59813e-06
2.65931e-08
2.57478e-06
2.33478e-08
2.55392e-06
2.08525e-08
2.53479e-06
1.91268e-08
2.51673e-06
1.80619e-08
2.49751e-06
1.92127e-08
2.47717e-06
2.03424e-08
3.98347e-08
2.43733e-06
3.45306e-06
2.3593e-08
3.457e-06
7.8461e-08
3.45052e-06
7.95976e-08
3.43904e-06
8.0159e-08
3.42422e-06
7.92105e-08
3.40693e-06
7.47156e-08
3.38763e-06
6.87354e-08
3.36701e-06
6.2732e-08
3.34573e-06
5.71587e-08
3.32438e-06
5.20781e-08
3.30343e-06
4.75429e-08
3.28312e-06
4.36453e-08
3.26364e-06
4.03302e-08
3.24496e-06
3.78097e-08
3.22717e-06
3.58441e-08
3.2101e-06
3.62861e-08
3.19432e-06
3.61256e-08
4.85914e-08
3.18556e-06
3.66815e-06
1.79556e-08
3.67918e-06
6.74295e-08
3.68539e-06
7.3388e-08
3.68939e-06
7.61522e-08
3.69095e-06
7.76509e-08
3.68992e-06
7.57336e-08
3.68671e-06
7.19424e-08
3.68177e-06
6.7667e-08
3.67549e-06
6.34359e-08
3.66818e-06
5.93846e-08
3.66011e-06
5.56139e-08
3.65149e-06
5.22563e-08
3.64249e-06
4.93293e-08
3.63322e-06
4.70748e-08
3.62366e-06
4.54053e-08
3.61436e-06
4.55805e-08
3.6043e-06
4.61802e-08
5.25511e-08
3.60034e-06
3.92584e-06
1.75015e-08
3.9359e-06
5.73726e-08
3.94252e-06
6.67589e-08
3.94803e-06
7.06443e-08
3.95239e-06
7.32807e-08
3.95528e-06
7.2845e-08
3.95687e-06
7.03493e-08
3.9574e-06
6.71336e-08
3.95705e-06
6.37786e-08
3.95596e-06
6.04669e-08
3.95426e-06
5.73128e-08
3.95204e-06
5.4467e-08
3.94939e-06
5.19838e-08
3.94638e-06
5.00791e-08
3.94302e-06
4.87688e-08
3.93981e-06
4.87814e-08
3.93648e-06
4.95105e-08
5.26611e-08
3.93637e-06
4.20819e-06
1.64358e-08
4.21596e-06
4.96025e-08
4.22163e-06
6.10855e-08
4.2267e-06
6.55751e-08
4.23139e-06
6.85811e-08
4.2353e-06
6.89378e-08
4.23838e-06
6.72635e-08
4.24075e-06
6.47624e-08
4.2425e-06
6.2021e-08
4.24372e-06
5.92426e-08
4.24448e-06
5.65501e-08
4.24485e-06
5.40929e-08
4.24488e-06
5.19517e-08
4.24466e-06
5.02977e-08
4.24424e-06
4.91864e-08
4.24402e-06
4.89951e-08
4.24411e-06
4.94212e-08
5.07945e-08
4.24598e-06
4.5107e-06
1.48201e-08
4.51686e-06
4.34456e-08
4.52208e-06
5.58638e-08
4.52685e-06
6.07969e-08
4.53151e-06
6.392e-08
4.53569e-06
6.47563e-08
4.53927e-06
6.36749e-08
4.54232e-06
6.17083e-08
4.54491e-06
5.94318e-08
4.54709e-06
5.70618e-08
4.5489e-06
5.47303e-08
4.55042e-06
5.2577e-08
4.55167e-06
5.06945e-08
4.55276e-06
4.92092e-08
4.55377e-06
4.8176e-08
4.555e-06
4.77591e-08
4.55666e-06
4.77552e-08
4.80092e-08
4.55945e-06
4.83432e-06
1.32171e-08
4.8396e-06
3.81639e-08
4.8447e-06
5.07662e-08
4.84936e-06
5.61327e-08
4.85393e-06
5.93399e-08
4.85818e-06
6.05073e-08
4.86196e-06
5.98886e-08
4.86532e-06
5.83498e-08
4.8683e-06
5.64465e-08
4.87095e-06
5.44059e-08
4.87331e-06
5.23663e-08
4.87543e-06
5.04557e-08
4.87736e-06
4.87668e-08
4.87918e-06
4.7388e-08
4.881e-06
4.63554e-08
4.88304e-06
4.57122e-08
4.8855e-06
4.52885e-08
4.48063e-08
4.8887e-06
5.18104e-06
1.17583e-08
5.18573e-06
3.34741e-08
5.1907e-06
4.57919e-08
5.19531e-06
5.15215e-08
5.19984e-06
5.48078e-08
5.20412e-06
5.62163e-08
5.20803e-06
5.59769e-08
5.21158e-06
5.48016e-08
5.2148e-06
5.32151e-08
5.21775e-06
5.14542e-08
5.22046e-06
4.96589e-08
5.22296e-06
4.79466e-08
5.22533e-06
4.64019e-08
5.22763e-06
4.50853e-08
5.22997e-06
4.40114e-08
5.23252e-06
4.31601e-08
5.23542e-06
4.23829e-08
4.14193e-08
5.23881e-06
5.55268e-06
1.04105e-08
5.55686e-06
2.92929e-08
5.56164e-06
4.10113e-08
5.56621e-06
4.6952e-08
5.57071e-06
5.02953e-08
5.57505e-06
5.18768e-08
5.57907e-06
5.1952e-08
5.58277e-06
5.1096e-08
5.5862e-06
4.97894e-08
5.58937e-06
4.8274e-08
5.59234e-06
4.66894e-08
5.59514e-06
4.51426e-08
5.59783e-06
4.3708e-08
5.60049e-06
4.2426e-08
5.6032e-06
4.12948e-08
5.60609e-06
4.02688e-08
5.60925e-06
3.92224e-08
3.79536e-08
5.61272e-06
5.95103e-06
9.15496e-09
5.95476e-06
2.55607e-08
5.9593e-06
3.64643e-08
5.96382e-06
4.24344e-08
5.96831e-06
4.57975e-08
5.97269e-06
4.74934e-08
5.97682e-06
4.78214e-08
5.98067e-06
4.72436e-08
5.98427e-06
4.61859e-08
5.98765e-06
4.48894e-08
5.99085e-06
4.34902e-08
5.9939e-06
4.20857e-08
5.99687e-06
4.07393e-08
5.99981e-06
3.94795e-08
6.00281e-06
3.82956e-08
6.00594e-06
3.71371e-08
6.00926e-06
3.59054e-08
3.44613e-08
6.01275e-06
6.37798e-06
7.99095e-09
6.38132e-06
2.22106e-08
6.38562e-06
3.21588e-08
6.39007e-06
3.79827e-08
6.39455e-06
4.13173e-08
6.39896e-06
4.30751e-08
6.40319e-06
4.35943e-08
6.40718e-06
4.3251e-08
6.41094e-06
4.24129e-08
6.41452e-06
4.13106e-08
6.41793e-06
4.00762e-08
6.42122e-06
3.87966e-08
6.42443e-06
3.75274e-08
6.42762e-06
3.6289e-08
6.43084e-06
3.50698e-08
6.43415e-06
3.38259e-08
6.43757e-06
3.24862e-08
3.09611e-08
6.44107e-06
5.74175e-06
7.07081e-09
5.74432e-06
1.96376e-08
5.74777e-06
2.8707e-08
5.75147e-06
3.42802e-08
5.75524e-06
3.75473e-08
5.75899e-06
3.93212e-08
5.76263e-06
3.99544e-08
5.7661e-06
3.97733e-08
5.76941e-06
3.90974e-08
5.77258e-06
3.81416e-08
5.77562e-06
3.70323e-08
5.77857e-06
3.58493e-08
5.78145e-06
3.46414e-08
5.78431e-06
3.34276e-08
5.78718e-06
3.21974e-08
5.79008e-06
3.09177e-08
5.79303e-06
2.95364e-08
2.80015e-08
5.79599e-06
6.99913e-06
6.09464e-09
7.00185e-06
1.69125e-08
7.0056e-06
2.49586e-08
7.00974e-06
3.01371e-08
7.01402e-06
3.32566e-08
7.01834e-06
3.50008e-08
7.02258e-06
3.57154e-08
7.02667e-06
3.56797e-08
7.0306e-06
3.5161e-08
7.03439e-06
3.43531e-08
7.03805e-06
3.33725e-08
7.0416e-06
3.22928e-08
7.04508e-06
3.11566e-08
7.04852e-06
2.9982e-08
7.05195e-06
2.87647e-08
7.05538e-06
2.74826e-08
7.05881e-06
2.6106e-08
2.4606e-08
7.06221e-06
8.53187e-06
5.06859e-09
8.53472e-06
1.40621e-08
8.53873e-06
2.09393e-08
8.54331e-06
2.55563e-08
8.54814e-06
2.84226e-08
8.55307e-06
3.00694e-08
8.55797e-06
3.08151e-08
8.56275e-06
3.08918e-08
8.5674e-06
3.05152e-08
8.5719e-06
2.98489e-08
8.57627e-06
2.90004e-08
8.58052e-06
2.80318e-08
8.58469e-06
2.69837e-08
8.5888e-06
2.58733e-08
8.59286e-06
2.47039e-08
8.59687e-06
2.34659e-08
8.60082e-06
2.21464e-08
2.07365e-08
8.60469e-06
1.04003e-05
4.00119e-09
1.04032e-05
1.1104e-08
1.04075e-05
1.66676e-08
1.04125e-05
2.05428e-08
1.04179e-05
2.30214e-08
1.04235e-05
2.44828e-08
1.04291e-05
2.51889e-08
1.04347e-05
2.53294e-08
1.04401e-05
2.50662e-08
1.04454e-05
2.45322e-08
1.04506e-05
2.38144e-08
1.04557e-05
2.29711e-08
1.04606e-05
2.20336e-08
1.04655e-05
2.10238e-08
1.04702e-05
1.99479e-08
1.04749e-05
1.88098e-08
1.04794e-05
1.76069e-08
1.63431e-08
1.04838e-05
1.26779e-05
2.89509e-09
1.2681e-05
8.03116e-09
1.26855e-05
1.2138e-08
1.26909e-05
1.5084e-08
1.26969e-05
1.70192e-08
1.27032e-05
1.81821e-08
1.27097e-05
1.87639e-08
1.27161e-05
1.89039e-08
1.27224e-05
1.87175e-08
1.27287e-05
1.82982e-08
1.27348e-05
1.77153e-08
1.27407e-05
1.70124e-08
1.27465e-05
1.62193e-08
1.27522e-05
1.5353e-08
1.27577e-05
1.44271e-08
1.27631e-05
1.34484e-08
1.27682e-05
1.24255e-08
1.1363e-08
1.27732e-05
1.54543e-05
1.73845e-09
1.54576e-05
4.7944e-09
1.54624e-05
7.28871e-09
1.54684e-05
9.11494e-09
1.54751e-05
1.03343e-08
1.54822e-05
1.10701e-08
1.54895e-05
1.14317e-08
1.54969e-05
1.15026e-08
1.55043e-05
1.13509e-08
1.55115e-05
1.10324e-08
1.55186e-05
1.05898e-08
1.55256e-05
1.00534e-08
1.55324e-05
9.44348e-09
1.55389e-05
8.77474e-09
1.55453e-05
8.05847e-09
1.55514e-05
7.30485e-09
1.55573e-05
6.52316e-09
5.71999e-09
1.5563e-05
1.88389e-05
4.8928e-10
1.88424e-05
1.26881e-09
1.88477e-05
1.94412e-09
1.88544e-05
2.44139e-09
1.8862e-05
2.76536e-09
1.88701e-05
2.94225e-09
1.88785e-05
2.99256e-09
1.88871e-05
2.93579e-09
1.88957e-05
2.7895e-09
1.89041e-05
2.56971e-09
1.89124e-05
2.28836e-09
1.89205e-05
1.95631e-09
1.89284e-05
1.58143e-09
1.8936e-05
1.17104e-09
1.89433e-05
7.3136e-10
1.89503e-05
2.69521e-10
1.8957e-05
-2.07076e-10
-6.94833e-10
1.89635e-05
2.29648e-05
-9.55907e-10
2.29689e-05
-2.83347e-09
2.29751e-05
-4.31341e-09
2.2983e-05
-5.41192e-09
2.29919e-05
-6.16161e-09
2.30015e-05
-6.65395e-09
2.30115e-05
-6.97331e-09
2.30216e-05
-7.17922e-09
2.30317e-05
-7.30555e-09
2.30416e-05
-7.38888e-09
2.30513e-05
-7.45094e-09
2.30608e-05
-7.51116e-09
2.307e-05
-7.57436e-09
2.30788e-05
-7.64798e-09
2.30872e-05
-7.73058e-09
2.30953e-05
-7.82501e-09
2.3103e-05
-7.92574e-09
-8.03641e-09
2.31104e-05
1.68118e-05
-2.09174e-09
1.6815e-05
-6.02499e-09
1.68199e-05
-9.18263e-09
1.68259e-05
-1.14665e-08
1.68327e-05
-1.29522e-08
1.68399e-05
-1.38649e-08
1.68474e-05
-1.43984e-08
1.68548e-05
-1.46515e-08
1.68622e-05
-1.47104e-08
1.68695e-05
-1.46404e-08
1.68765e-05
-1.45015e-08
1.68833e-05
-1.43222e-08
1.68899e-05
-1.41285e-08
1.68962e-05
-1.39277e-08
1.69021e-05
-1.3733e-08
1.69079e-05
-1.35436e-08
1.69133e-05
-1.33648e-08
-1.31947e-08
1.69185e-05
1.46357e-05
-3.18166e-09
1.46388e-05
-9.12975e-09
1.46435e-05
-1.39285e-08
1.46493e-05
-1.72592e-08
1.46556e-05
-1.93025e-08
1.46623e-05
-2.05115e-08
1.4669e-05
-2.11537e-08
1.46757e-05
-2.13709e-08
1.46823e-05
-2.12901e-08
1.46887e-05
-2.1031e-08
1.46949e-05
-2.06667e-08
1.47008e-05
-2.02452e-08
1.47065e-05
-1.97937e-08
1.47119e-05
-1.9334e-08
1.4717e-05
-1.88772e-08
1.47219e-05
-1.8432e-08
1.47265e-05
-1.79991e-08
-1.75845e-08
1.47309e-05
1.27412e-05
-4.20197e-09
1.27443e-05
-1.22719e-08
1.27491e-05
-1.87861e-08
1.27548e-05
-2.2945e-08
1.27609e-05
-2.53361e-08
1.27671e-05
-2.67335e-08
1.27733e-05
-2.74016e-08
1.27794e-05
-2.74896e-08
1.27853e-05
-2.72054e-08
1.2791e-05
-2.6714e-08
1.27965e-05
-2.61051e-08
1.28016e-05
-2.54319e-08
1.28066e-05
-2.47277e-08
1.28113e-05
-2.40204e-08
1.28157e-05
-2.3321e-08
1.28199e-05
-2.26421e-08
1.28239e-05
-2.19822e-08
-2.13481e-08
1.28276e-05
1.10918e-05
-5.05502e-09
1.1095e-05
-1.55059e-08
1.11002e-05
-2.39344e-08
1.11058e-05
-2.86034e-08
1.11116e-05
-3.11147e-08
1.11174e-05
-3.25991e-08
1.11232e-05
-3.31891e-08
1.11288e-05
-3.30671e-08
1.11341e-05
-3.25349e-08
1.11392e-05
-3.17896e-08
1.1144e-05
-3.0925e-08
1.11486e-05
-2.99955e-08
1.11529e-05
-2.90461e-08
1.1157e-05
-2.81006e-08
1.11608e-05
-2.71789e-08
1.11645e-05
-2.6284e-08
1.11679e-05
-2.54219e-08
-2.4592e-08
1.11711e-05
9.65583e-06
-5.67022e-09
9.65926e-06
-1.894e-08
9.66462e-06
-2.92986e-08
9.67014e-06
-3.41286e-08
9.67573e-06
-3.67091e-08
9.68133e-06
-3.82004e-08
9.68671e-06
-3.85692e-08
9.69178e-06
-3.81463e-08
9.69658e-06
-3.73336e-08
9.70111e-06
-3.63256e-08
9.70539e-06
-3.52018e-08
9.70941e-06
-3.40209e-08
9.71319e-06
-3.28294e-08
9.71674e-06
-3.16581e-08
9.72008e-06
-3.05203e-08
9.72322e-06
-2.9424e-08
9.72617e-06
-2.83694e-08
-2.73549e-08
9.72893e-06
8.40533e-06
-5.64764e-09
8.40965e-06
-2.32639e-08
8.4149e-06
-3.45498e-08
8.41994e-06
-3.91795e-08
8.42534e-06
-4.21049e-08
8.43078e-06
-4.36436e-08
8.4359e-06
-4.36939e-08
8.44064e-06
-4.28938e-08
8.44505e-06
-4.17455e-08
8.44915e-06
-4.04257e-08
8.45295e-06
-3.90039e-08
8.45647e-06
-3.75421e-08
8.45972e-06
-3.60891e-08
8.46274e-06
-3.4673e-08
8.46552e-06
-3.33089e-08
8.4681e-06
-3.20028e-08
8.47048e-06
-3.07548e-08
-2.95653e-08
8.47269e-06
7.31455e-06
-2.91557e-09
7.3212e-06
-2.99151e-08
7.32676e-06
-4.01152e-08
7.33173e-06
-4.41513e-08
7.33715e-06
-4.75264e-08
7.3425e-06
-4.89933e-08
7.3474e-06
-4.86037e-08
7.35185e-06
-4.73406e-08
7.35586e-06
-4.5758e-08
7.35944e-06
-4.40152e-08
7.36263e-06
-4.21937e-08
7.36545e-06
-4.03626e-08
7.36793e-06
-3.85779e-08
7.37012e-06
-3.68621e-08
7.37204e-06
-3.52301e-08
7.37372e-06
-3.3685e-08
7.37519e-06
-3.22259e-08
-3.08456e-08
7.37647e-06
6.36245e-06
4.69532e-09
6.3719e-06
-3.93636e-08
6.37934e-06
-4.75545e-08
6.38599e-06
-5.08076e-08
6.39229e-06
-5.38289e-08
6.39762e-06
-5.43294e-08
6.40194e-06
-5.2924e-08
6.40545e-06
-5.08481e-08
6.40827e-06
-4.85853e-08
6.41048e-06
-4.62278e-08
6.41214e-06
-4.38501e-08
6.4133e-06
-4.15331e-08
6.41405e-06
-3.93248e-08
6.41443e-06
-3.72442e-08
6.4145e-06
-3.53045e-08
6.41431e-06
-3.35016e-08
6.41392e-06
-3.18371e-08
-3.02882e-08
6.41337e-06
5.54121e-06
8.95401e-09
5.55033e-06
-4.84929e-08
5.55836e-06
-5.55812e-08
5.56607e-06
-5.85226e-08
5.57254e-06
-6.03066e-08
5.57688e-06
-5.86728e-08
5.57914e-06
-5.5186e-08
5.57972e-06
-5.14288e-08
5.57898e-06
-4.78537e-08
5.57722e-06
-4.44631e-08
5.57464e-06
-4.12769e-08
5.57144e-06
-3.83379e-08
5.56777e-06
-3.56537e-08
5.56374e-06
-3.32156e-08
5.55945e-06
-3.10207e-08
5.555e-06
-2.90518e-08
5.55047e-06
-2.73093e-08
-2.57459e-08
5.54593e-06
4.86004e-06
-2.34836e-08
4.86539e-06
-5.38395e-08
4.86524e-06
-5.54411e-08
4.86218e-06
-5.54614e-08
4.85702e-06
-5.51482e-08
4.84953e-06
-5.11865e-08
4.83984e-06
-4.5506e-08
4.82846e-06
-4.00535e-08
4.8159e-06
-3.5299e-08
4.80264e-06
-3.12034e-08
4.78906e-06
-2.76977e-08
4.77544e-06
-2.47194e-08
4.76197e-06
-2.21877e-08
4.74878e-06
-2.00325e-08
4.73597e-06
-1.82079e-08
4.72359e-06
-1.6679e-08
4.71176e-06
-1.54852e-08
-1.51448e-08
4.70116e-06
4.17919e-06
4.12535e-06
4.06991e-06
4.01445e-06
3.9593e-06
3.90811e-06
3.86261e-06
3.82255e-06
3.78725e-06
3.75605e-06
3.72835e-06
3.70363e-06
3.68144e-06
3.66141e-06
3.6432e-06
3.62652e-06
3.61104e-06
3.59589e-06
2.12003e-08
-2.1336e-08
4.51738e-08
-2.40828e-08
6.48555e-08
-1.98183e-08
7.87867e-08
-1.39985e-08
8.63395e-08
-7.66798e-09
8.76731e-08
-1.40613e-09
8.31963e-08
4.36439e-09
7.37386e-08
9.36305e-09
6.01464e-08
1.34797e-08
4.332e-08
1.67157e-08
2.40687e-08
1.91413e-08
3.02941e-09
2.09361e-08
-1.97102e-08
2.26345e-08
-4.50355e-08
2.52504e-08
-7.44057e-08
2.92215e-08
-1.0383e-07
2.9317e-08
-1.30554e-07
2.65035e-08
-1.62387e-07
3.17443e-08
-2.01002e-07
3.84233e-08
-2.46286e-07
4.52185e-08
-2.97655e-07
5.12056e-08
-3.53616e-07
5.59143e-08
-4.13469e-07
5.97137e-08
-4.75973e-07
6.24663e-08
-5.40412e-07
6.43082e-08
-6.06518e-07
6.60659e-08
-6.74248e-07
6.75939e-08
-7.43025e-07
6.8732e-08
-8.12552e-07
6.93944e-08
-8.8217e-07
6.95663e-08
-9.51566e-07
6.92566e-08
-1.02014e-06
6.85149e-08
-1.08766e-06
6.73875e-08
-1.15368e-06
6.59448e-08
-1.21806e-06
6.42438e-08
-1.28049e-06
6.23578e-08
-1.34096e-06
6.03386e-08
-1.39927e-06
5.82486e-08
-1.45552e-06
5.61242e-08
-1.50959e-06
5.4012e-08
-1.56163e-06
5.19322e-08
-1.61159e-06
4.9916e-08
-1.65966e-06
4.79705e-08
-1.70583e-06
4.61154e-08
-1.75026e-06
4.43483e-08
-1.793e-06
4.26798e-08
-1.83419e-06
4.11019e-08
-1.87387e-06
3.96204e-08
-1.91217e-06
3.82248e-08
-1.94915e-06
3.69184e-08
-1.98492e-06
3.56892e-08
-2.01952e-06
3.45387e-08
-2.05306e-06
3.34558e-08
-2.08558e-06
3.24424e-08
-2.11716e-06
3.14877e-08
-2.14785e-06
3.0594e-08
-2.17771e-06
2.97528e-08
-2.20678e-06
2.89675e-08
-2.23512e-06
2.8231e-08
-2.26279e-06
2.75462e-08
-2.28981e-06
2.69079e-08
-2.31626e-06
2.63197e-08
-2.34215e-06
2.57783e-08
-2.36757e-06
2.52858e-08
-2.39252e-06
2.48413e-08
-2.4171e-06
2.44462e-08
-2.4413e-06
2.41019e-08
-2.46524e-06
2.38086e-08
-2.4889e-06
2.35695e-08
-2.5124e-06
2.33819e-08
-2.53573e-06
2.32515e-08
-2.55902e-06
2.31746e-08
-2.58224e-06
2.3158e-08
-2.60556e-06
2.31932e-08
-2.62892e-06
2.32887e-08
-2.65249e-06
2.34327e-08
-2.67621e-06
2.36349e-08
-2.70025e-06
2.38846e-08
-2.72452e-06
2.41894e-08
-2.7492e-06
2.45278e-08
-2.77419e-06
2.49104e-08
-2.79966e-06
2.53171e-08
-2.82547e-06
2.5759e-08
-2.85182e-06
2.62047e-08
-2.87853e-06
2.66668e-08
-2.90575e-06
2.71146e-08
-2.93331e-06
2.75614e-08
-2.96127e-06
2.79821e-08
-2.98955e-06
2.83774e-08
-3.01806e-06
2.87277e-08
-3.0468e-06
2.89147e-08
-3.07525e-06
2.86249e-08
-3.10336e-06
2.82462e-08
-3.13171e-06
2.84973e-08
-3.15956e-06
2.79704e-08
-3.1866e-06
2.7171e-08
-3.21274e-06
2.62369e-08
-3.23776e-06
2.5108e-08
-3.26165e-06
2.39212e-08
-3.28374e-06
2.21045e-08
-3.30395e-06
2.01407e-08
-3.32173e-06
1.76162e-08
-3.33666e-06
1.46784e-08
-3.34824e-06
1.12077e-08
-3.35619e-06
7.54986e-09
-3.36024e-06
3.5739e-09
-3.35969e-06
-9.61752e-10
-3.35516e-06
-4.96236e-09
-3.34687e-06
-8.63108e-09
-3.33439e-06
-1.28392e-08
-3.31731e-06
-1.73349e-08
-3.29567e-06
-2.19199e-08
-3.26894e-06
-2.69005e-08
-3.23701e-06
-3.21276e-08
-3.19965e-06
-3.74412e-08
-3.15667e-06
-4.30946e-08
-3.10805e-06
-4.86382e-08
-3.05389e-06
-5.41602e-08
-2.99381e-06
-5.99647e-08
-2.92789e-06
-6.58469e-08
-2.85628e-06
-7.15497e-08
-2.77893e-06
-7.74302e-08
-2.69583e-06
-8.31672e-08
-2.6071e-06
-8.88088e-08
-2.5128e-06
-9.4224e-08
-2.41323e-06
-9.94456e-08
-2.30858e-06
-1.04383e-07
-2.19923e-06
-1.09048e-07
-2.08546e-06
-1.13362e-07
-1.96772e-06
-1.17326e-07
-1.84636e-06
-1.20878e-07
-1.72186e-06
-1.24013e-07
-1.59466e-06
-1.26692e-07
-1.46525e-06
-1.28911e-07
-1.33409e-06
-1.30659e-07
-1.20166e-06
-1.31951e-07
-1.06839e-06
-1.32795e-07
-9.34763e-07
-1.33213e-07
-8.01189e-07
-1.33234e-07
-6.68059e-07
-1.3289e-07
-5.3571e-07
-1.32185e-07
-4.04546e-07
-1.31095e-07
-2.74569e-07
-1.29969e-07
-1.45252e-07
-1.29383e-07
-1.56017e-08
-1.2976e-07
1.13938e-07
-1.29689e-07
2.41151e-07
-1.27374e-07
3.6467e-07
-1.23698e-07
4.84004e-07
-1.19511e-07
5.98898e-07
-1.15079e-07
7.09263e-07
-1.10541e-07
8.15041e-07
-1.05957e-07
9.16256e-07
-1.01382e-07
1.01296e-06
-9.68733e-08
1.10527e-06
-9.24517e-08
1.19323e-06
-8.81136e-08
1.27701e-06
-8.39109e-08
1.35675e-06
-7.98644e-08
1.43259e-06
-7.59413e-08
1.50462e-06
-7.21394e-08
1.57301e-06
-6.84742e-08
1.63789e-06
-6.49599e-08
1.69942e-06
-6.15954e-08
1.75772e-06
-5.83554e-08
1.8129e-06
-5.52317e-08
1.86509e-06
-5.2225e-08
1.91438e-06
-4.93298e-08
1.96088e-06
-4.6525e-08
2.00466e-06
-4.38032e-08
2.04578e-06
-4.11321e-08
2.08423e-06
-3.8466e-08
2.11995e-06
-3.57314e-08
2.15276e-06
-3.28264e-08
2.18232e-06
-2.95668e-08
2.2079e-06
-2.56036e-08
2.2282e-06
-2.03143e-08
2.23937e-06
-1.12037e-08
2.23223e-06
7.11717e-09
2.18479e-06
4.74105e-08
1.16101e-07
2.06869e-06
2.12059e-08
-4.26553e-08
3.49591e-08
-3.79197e-08
4.18208e-08
-2.67581e-08
4.36974e-08
-1.59199e-08
4.13674e-08
-5.39949e-09
3.51728e-08
4.74188e-09
2.51326e-08
1.43428e-08
1.1168e-08
2.32695e-08
-6.86357e-09
3.14467e-08
-2.9123e-08
3.89095e-08
-5.57319e-08
4.56865e-08
-8.66317e-08
5.17772e-08
-1.21768e-07
5.77132e-08
-1.60738e-07
6.41725e-08
-2.02725e-07
7.11525e-08
-2.50833e-07
7.73814e-08
-3.06908e-07
8.25216e-08
-3.64287e-07
8.90852e-08
-4.22595e-07
9.66784e-08
-4.82038e-07
1.04629e-07
-5.43039e-07
1.12157e-07
-6.05789e-07
1.18634e-07
-6.70107e-07
1.23985e-07
-7.3591e-07
1.28242e-07
-8.02962e-07
1.31312e-07
-8.7027e-07
1.33342e-07
-9.37214e-07
1.34487e-07
-1.00329e-06
1.3477e-07
-1.06815e-06
1.34209e-07
-1.13149e-06
1.32864e-07
-1.19311e-06
1.30821e-07
-1.25282e-06
1.28186e-07
-1.31056e-06
1.25071e-07
-1.36624e-06
1.21585e-07
-1.41989e-06
1.17832e-07
-1.47149e-06
1.13911e-07
-1.52111e-06
1.09903e-07
-1.56879e-06
1.05884e-07
-1.61462e-06
1.01909e-07
-1.65868e-06
9.80277e-08
-1.70106e-06
9.42711e-08
-1.74185e-06
9.06651e-08
-1.78114e-06
8.72231e-08
-1.81902e-06
8.39555e-08
-1.85558e-06
8.08633e-08
-1.89088e-06
7.79474e-08
-1.92502e-06
7.52018e-08
-1.95806e-06
7.26223e-08
-1.99008e-06
7.01997e-08
-2.02112e-06
6.79275e-08
-2.05127e-06
6.57948e-08
-2.08057e-06
6.37949e-08
-2.10907e-06
6.19177e-08
-2.13684e-06
6.01578e-08
-2.16391e-06
5.8506e-08
-2.19032e-06
5.69587e-08
-2.21614e-06
5.55093e-08
-2.24139e-06
5.41562e-08
-2.26611e-06
5.28942e-08
-2.29036e-06
5.1723e-08
-2.31415e-06
5.06394e-08
-2.33755e-06
4.9645e-08
-2.36058e-06
4.87379e-08
-2.38328e-06
4.79201e-08
-2.4057e-06
4.71909e-08
-2.42788e-06
4.65531e-08
-2.44985e-06
4.6007e-08
-2.47166e-06
4.55554e-08
-2.49335e-06
4.51989e-08
-2.51497e-06
4.49391e-08
-2.53655e-06
4.47769e-08
-2.55814e-06
4.47118e-08
-2.57978e-06
4.47439e-08
-2.60152e-06
4.48699e-08
-2.62337e-06
4.50867e-08
-2.64539e-06
4.53888e-08
-2.66759e-06
4.5775e-08
-2.69002e-06
4.62364e-08
-2.71265e-06
4.67655e-08
-2.73555e-06
4.73476e-08
-2.75867e-06
4.7975e-08
-2.78205e-06
4.86291e-08
-2.80564e-06
4.9297e-08
-2.82946e-06
4.99528e-08
-2.85342e-06
5.05815e-08
-2.87751e-06
5.11543e-08
-2.90161e-06
5.16513e-08
-2.92567e-06
5.20379e-08
-2.9495e-06
5.22988e-08
-2.97302e-06
5.23525e-08
-2.99612e-06
5.21289e-08
-3.01894e-06
5.15365e-08
-3.04131e-06
5.06978e-08
-3.06251e-06
4.97822e-08
-3.08286e-06
4.83854e-08
-3.10212e-06
4.64932e-08
-3.12002e-06
4.41871e-08
-3.13635e-06
4.14749e-08
-3.15076e-06
3.8334e-08
-3.16329e-06
3.46169e-08
-3.1736e-06
3.03704e-08
-3.18166e-06
2.55451e-08
-3.18735e-06
2.01516e-08
-3.19066e-06
1.42619e-08
-3.19142e-06
7.98343e-09
-3.18941e-06
1.26888e-09
-3.18466e-06
-6.01614e-09
-3.17621e-06
-1.36797e-08
-3.16346e-06
-2.16335e-08
-3.14644e-06
-3.00694e-08
-3.12492e-06
-3.90549e-08
-3.0985e-06
-4.84873e-08
-3.06715e-06
-5.83995e-08
-3.03064e-06
-6.87318e-08
-2.98869e-06
-7.9474e-08
-2.94126e-06
-9.05701e-08
-2.88812e-06
-1.01808e-07
-2.82904e-06
-1.13212e-07
-2.76414e-06
-1.24805e-07
-2.69339e-06
-1.36534e-07
-2.61666e-06
-1.48279e-07
-2.53411e-06
-1.60031e-07
-2.4457e-06
-1.71643e-07
-2.35152e-06
-1.83024e-07
-2.25171e-06
-1.94019e-07
-2.14648e-06
-2.04584e-07
-2.03611e-06
-2.1461e-07
-1.92093e-06
-2.24042e-07
-1.8013e-06
-2.32777e-07
-1.67762e-06
-2.4076e-07
-1.55033e-06
-2.47904e-07
-1.41991e-06
-2.54166e-07
-1.28684e-06
-2.59488e-07
-1.15164e-06
-2.63853e-07
-1.01479e-06
-2.67247e-07
-8.76812e-07
-2.69688e-07
-7.38184e-07
-2.71194e-07
-5.99395e-07
-2.71816e-07
-4.60876e-07
-2.71604e-07
-3.23024e-07
-2.70653e-07
-1.85989e-07
-2.6916e-07
-4.97614e-08
-2.67311e-07
8.52354e-08
-2.64972e-07
2.17881e-07
-2.62074e-07
3.46575e-07
-2.58508e-07
4.70625e-07
-2.53821e-07
5.90799e-07
-2.4763e-07
7.07363e-07
-2.40362e-07
8.20195e-07
-2.32439e-07
9.2915e-07
-2.24142e-07
1.03413e-06
-2.15627e-07
1.13509e-06
-2.07023e-07
1.23201e-06
-1.98406e-07
1.32491e-06
-1.89879e-07
1.41384e-06
-1.81478e-07
1.49887e-06
-1.73238e-07
1.58007e-06
-1.652e-07
1.65752e-06
-1.57407e-07
1.73134e-06
-1.49838e-07
1.80164e-06
-1.42516e-07
1.86855e-06
-1.35445e-07
1.93218e-06
-1.2865e-07
1.99264e-06
-1.22117e-07
2.05007e-06
-1.15825e-07
2.10455e-06
-1.09755e-07
2.1562e-06
-1.0391e-07
2.20511e-06
-9.82681e-08
2.25136e-06
-9.28065e-08
2.29504e-06
-8.74947e-08
2.33617e-06
-8.22787e-08
2.37475e-06
-7.70629e-08
2.41072e-06
-7.17175e-08
2.44392e-06
-6.60335e-08
2.47402e-06
-5.96802e-08
2.50044e-06
-5.20373e-08
2.52213e-06
-4.20212e-08
2.53793e-06
-2.70272e-08
2.54721e-06
-2.18224e-09
2.54855e-06
4.60516e-08
1.37883e-07
2.52677e-06
9.09653e-09
-5.1845e-08
1.007e-08
-3.89574e-08
6.50709e-09
-2.32525e-08
-6.56289e-10
-8.78952e-09
-1.10165e-08
4.9176e-09
-2.43989e-08
1.80915e-08
-4.08847e-08
3.07885e-08
-6.06745e-08
4.30219e-08
-8.4063e-08
5.47946e-08
-1.11305e-07
6.61124e-08
-1.42585e-07
7.69279e-08
-1.78084e-07
8.7242e-08
-2.17692e-07
9.72867e-08
-2.60865e-07
1.07318e-07
-3.07076e-07
1.17332e-07
-3.56711e-07
1.26993e-07
-4.10265e-07
1.36045e-07
-4.66127e-07
1.44926e-07
-5.23141e-07
1.53663e-07
-5.8056e-07
1.62028e-07
-6.38138e-07
1.69707e-07
-6.9597e-07
1.76446e-07
-7.54059e-07
1.82045e-07
-8.1216e-07
1.86323e-07
-8.70113e-07
1.89235e-07
-9.27613e-07
1.90819e-07
-9.84328e-07
1.9117e-07
-1.03997e-06
1.90385e-07
-1.09437e-06
1.88579e-07
-1.14741e-06
1.85876e-07
-1.19903e-06
1.82408e-07
-1.24918e-06
1.78311e-07
-1.29786e-06
1.73717e-07
-1.34506e-06
1.68756e-07
-1.3908e-06
1.63544e-07
-1.4351e-06
1.58185e-07
-1.47801e-06
1.52771e-07
-1.51953e-06
1.4738e-07
-1.55972e-06
1.42073e-07
-1.59862e-06
1.36898e-07
-1.63627e-06
1.31893e-07
-1.67271e-06
1.27082e-07
-1.70799e-06
1.22482e-07
-1.74216e-06
1.18102e-07
-1.77527e-06
1.13945e-07
-1.80735e-06
1.1001e-07
-1.83847e-06
1.06293e-07
-1.86866e-06
1.02788e-07
-1.89797e-06
9.94843e-08
-1.92645e-06
9.63744e-08
-1.95413e-06
9.34475e-08
-1.98105e-06
9.06939e-08
-2.00727e-06
8.81039e-08
-2.03281e-06
8.5669e-08
-2.05772e-06
8.33807e-08
-2.08203e-06
8.12327e-08
-2.10578e-06
7.9219e-08
-2.129e-06
7.73356e-08
-2.15172e-06
7.55784e-08
-2.17399e-06
7.39454e-08
-2.19582e-06
7.24348e-08
-2.21727e-06
7.10468e-08
-2.23836e-06
6.9781e-08
-2.25912e-06
6.86388e-08
-2.27959e-06
6.76212e-08
-2.29982e-06
6.67303e-08
-2.31982e-06
6.59678e-08
-2.33964e-06
6.53359e-08
-2.35932e-06
6.4836e-08
-2.37889e-06
6.44696e-08
-2.39839e-06
6.42367e-08
-2.41785e-06
6.41373e-08
-2.43731e-06
6.41692e-08
-2.4568e-06
6.4328e-08
-2.47636e-06
6.46089e-08
-2.49602e-06
6.50049e-08
-2.51579e-06
6.55081e-08
-2.5357e-06
6.61078e-08
-2.55577e-06
6.67901e-08
-2.576e-06
6.75377e-08
-2.5964e-06
6.83331e-08
-2.61696e-06
6.91531e-08
-2.63768e-06
6.99728e-08
-2.65853e-06
7.07617e-08
-2.67947e-06
7.14902e-08
-2.70046e-06
7.21209e-08
-2.72145e-06
7.26165e-08
-2.74234e-06
7.29386e-08
-2.76305e-06
7.30348e-08
-2.78348e-06
7.28544e-08
-2.80359e-06
7.23094e-08
-2.82335e-06
7.1345e-08
-2.84259e-06
6.99816e-08
-2.86101e-06
6.82289e-08
-2.87856e-06
6.59759e-08
-2.89516e-06
6.31054e-08
-2.91059e-06
5.96413e-08
-2.92468e-06
5.55531e-08
-2.93718e-06
5.08268e-08
-2.948e-06
4.53904e-08
-2.95694e-06
3.92261e-08
-2.96385e-06
3.23215e-08
-2.96856e-06
2.46646e-08
-2.97082e-06
1.63023e-08
-2.97033e-06
7.25024e-09
-2.96677e-06
-2.51455e-09
-2.95994e-06
-1.30746e-08
-2.94942e-06
-2.43917e-08
-2.93486e-06
-3.63825e-08
-2.91603e-06
-4.9039e-08
-2.89276e-06
-6.24788e-08
-2.86472e-06
-7.66212e-08
-2.83179e-06
-9.14461e-08
-2.7937e-06
-1.06881e-07
-2.75031e-06
-1.2293e-07
-2.70144e-06
-1.39469e-07
-2.64691e-06
-1.56357e-07
-2.58655e-06
-1.73532e-07
-2.52037e-06
-1.90948e-07
-2.44831e-06
-2.08552e-07
-2.37037e-06
-2.26234e-07
-2.28658e-06
-2.43852e-07
-2.197e-06
-2.61283e-07
-2.1017e-06
-2.78346e-07
-2.00083e-06
-2.94872e-07
-1.89462e-06
-3.10723e-07
-1.78337e-06
-3.25771e-07
-1.66739e-06
-3.39883e-07
-1.54707e-06
-3.52938e-07
-1.42283e-06
-3.64816e-07
-1.29514e-06
-3.75411e-07
-1.16448e-06
-3.84637e-07
-1.03135e-06
-3.92427e-07
-8.96268e-07
-3.98742e-07
-7.59763e-07
-4.03573e-07
-6.22343e-07
-4.06935e-07
-4.84506e-07
-4.08878e-07
-3.46729e-07
-4.09459e-07
-2.09417e-07
-4.08816e-07
-7.28601e-08
-4.07129e-07
6.24927e-08
-4.04458e-07
1.95938e-07
-4.00704e-07
3.26796e-07
-3.958e-07
4.54526e-07
-3.89776e-07
5.78602e-07
-3.82574e-07
6.98798e-07
-3.74007e-07
8.15249e-07
-3.64086e-07
9.28e-07
-3.53114e-07
1.03697e-06
-3.41419e-07
1.14208e-06
-3.29258e-07
1.24326e-06
-3.16825e-07
1.3405e-06
-3.04269e-07
1.43379e-06
-2.91712e-07
1.52317e-06
-2.79261e-07
1.60867e-06
-2.66994e-07
1.69038e-06
-2.54956e-07
1.76837e-06
-2.432e-07
1.84274e-06
-2.31779e-07
1.9136e-06
-2.20712e-07
1.98109e-06
-2.10008e-07
2.04531e-06
-1.99674e-07
2.10639e-06
-1.89723e-07
2.16442e-06
-1.80154e-07
2.21954e-06
-1.70939e-07
2.27185e-06
-1.62058e-07
2.32144e-06
-1.53499e-07
2.36842e-06
-1.4524e-07
2.41287e-06
-1.37243e-07
2.45485e-06
-1.29469e-07
2.49441e-06
-1.21826e-07
2.53154e-06
-1.14188e-07
2.5662e-06
-1.06364e-07
2.59824e-06
-9.80658e-08
2.6274e-06
-8.88355e-08
2.65325e-06
-7.78806e-08
2.67507e-06
-6.38391e-08
2.692e-06
-4.39635e-08
2.70334e-06
-1.35219e-08
2.71098e-06
3.84077e-08
1.30561e-07
2.71831e-06
-4.81093e-09
-4.71155e-08
-1.49356e-08
-2.88848e-08
-2.73368e-08
-1.08953e-08
-4.19545e-08
5.80107e-09
-5.88e-08
2.17314e-08
-7.79363e-08
3.72038e-08
-9.95261e-08
5.23489e-08
-1.23742e-07
6.7213e-08
-1.50773e-07
8.17979e-08
-1.80758e-07
9.60721e-08
-2.13835e-07
1.09979e-07
-2.50097e-07
1.23481e-07
-2.8944e-07
1.36606e-07
-3.31527e-07
1.49386e-07
-3.75987e-07
1.6177e-07
-4.2262e-07
1.73609e-07
-4.71345e-07
1.84749e-07
-5.21608e-07
1.95173e-07
-5.72793e-07
2.04826e-07
-6.24369e-07
2.13588e-07
-6.75982e-07
2.21298e-07
-7.27359e-07
2.27806e-07
-7.78325e-07
2.32988e-07
-8.28763e-07
2.36743e-07
-8.78589e-07
2.39036e-07
-9.27694e-07
2.39904e-07
-9.75985e-07
2.39435e-07
-1.02337e-06
2.37745e-07
-1.06979e-06
2.34973e-07
-1.11519e-06
2.31263e-07
-1.15958e-06
2.26763e-07
-1.2029e-06
2.21619e-07
-1.24518e-06
2.1597e-07
-1.28639e-06
2.09949e-07
-1.32655e-06
2.03676e-07
-1.36565e-06
1.97261e-07
-1.4037e-06
1.90797e-07
-1.4407e-06
1.84363e-07
-1.47667e-06
1.78023e-07
-1.51162e-06
1.71828e-07
-1.54556e-06
1.65817e-07
-1.57852e-06
1.60019e-07
-1.61051e-06
1.54454e-07
-1.64156e-06
1.49133e-07
-1.67169e-06
1.44061e-07
-1.70094e-06
1.3924e-07
-1.72934e-06
1.34667e-07
-1.7569e-06
1.30336e-07
-1.78368e-06
1.26239e-07
-1.80969e-06
1.22368e-07
-1.83498e-06
1.18711e-07
-1.85957e-06
1.15259e-07
-1.88349e-06
1.12002e-07
-1.90678e-06
1.08932e-07
-1.92946e-06
1.06039e-07
-1.95158e-06
1.03317e-07
-1.97314e-06
1.00759e-07
-1.9942e-06
9.83607e-08
-2.01477e-06
9.61185e-08
-2.03489e-06
9.40301e-08
-2.05458e-06
9.20942e-08
-2.07388e-06
9.03107e-08
-2.09281e-06
8.86805e-08
-2.11141e-06
8.72047e-08
-2.12971e-06
8.58858e-08
-2.14773e-06
8.47258e-08
-2.16553e-06
8.37276e-08
-2.18312e-06
8.28935e-08
-2.20054e-06
8.22257e-08
-2.21783e-06
8.17254e-08
-2.23501e-06
8.13931e-08
-2.25213e-06
8.12277e-08
-2.26921e-06
8.12265e-08
-2.2863e-06
8.1385e-08
-2.30341e-06
8.16958e-08
-2.32059e-06
8.21499e-08
-2.33784e-06
8.27366e-08
-2.35521e-06
8.34408e-08
-2.37269e-06
8.42448e-08
-2.39031e-06
8.51268e-08
-2.40807e-06
8.60624e-08
-2.42597e-06
8.70225e-08
-2.444e-06
8.79741e-08
-2.46215e-06
8.88797e-08
-2.48038e-06
8.96986e-08
-2.49867e-06
9.03856e-08
-2.51696e-06
9.08918e-08
-2.53519e-06
9.11627e-08
-2.55327e-06
9.11494e-08
-2.57114e-06
9.07627e-08
-2.58875e-06
8.99521e-08
-2.60601e-06
8.86384e-08
-2.62281e-06
8.67964e-08
-2.63896e-06
8.43954e-08
-2.65435e-06
8.13682e-08
-2.66886e-06
7.76168e-08
-2.68234e-06
7.31075e-08
-2.69461e-06
6.77964e-08
-2.70548e-06
6.16525e-08
-2.71478e-06
5.46214e-08
-2.72232e-06
4.66635e-08
-2.7279e-06
3.77552e-08
-2.7313e-06
2.78709e-08
-2.73223e-06
1.70242e-08
-2.7304e-06
5.20142e-09
-2.7255e-06
-7.6103e-09
-2.71729e-06
-2.14677e-08
-2.7055e-06
-3.635e-08
-2.68982e-06
-5.22064e-08
-2.66999e-06
-6.89912e-08
-2.64581e-06
-8.67767e-08
-2.61702e-06