/*--------------------------------*- C++ -*----------------------------------*\
  =========                 |
  \\      /  F ield         | OpenFOAM: The Open Source CFD Toolbox
   \\    /   O peration     | Website:  https://openfoam.org
    \\  /    A nd           | Version:  8
     \\/     M anipulation  |
\*---------------------------------------------------------------------------*/
/*   Windows 32 and 64 bit porting by blueCAPE: http://www.bluecape.com.pt   *\
|  Based on Windows porting (2.0.x v4) by Symscape: http://www.symscape.com   |
\*---------------------------------------------------------------------------*/
FoamFile
{
    version     2.0;
    format      ascii;
    class       volVectorField;
    location    "100";
    object      U;
}
// * * * * * * * * * * * * * * * * * * * * * * * * * * * * * * * * * * * * * //

dimensions      [0 1 -1 0 0 0 0];

internalField   nonuniform List<vector> 
12225
(
(9.85697 -0.886412 0)
(9.6666 -0.740745 0)
(9.45559 -0.429459 0)
(9.22424 -0.222191 0)
(9.00601 -0.106415 0)
(8.81361 -0.0458097 0)
(8.64629 -0.0151083 0)
(8.50371 0.000553366 0)
(8.38134 0.00852234 0)
(8.27785 0.0124628 0)
(8.18823 0.0142567 0)
(8.11065 0.0153825 0)
(8.04162 0.0159428 0)
(7.97957 0.0165307 0)
(7.92105 0.0169727 0)
(7.86747 0.0188673 0)
(7.79344 0.0199494 0)
(7.78301 0.0306794 0)
(10.0545 0.227556 0)
(10.121 0.326934 0)
(10.1196 0.261591 0)
(10.0855 0.186587 0)
(10.0432 0.13473 0)
(9.9964 0.101208 0)
(9.94354 0.0794246 0)
(9.88449 0.0647473 0)
(9.82285 0.0545124 0)
(9.75983 0.0470231 0)
(9.69785 0.0414081 0)
(9.63721 0.0370863 0)
(9.57894 0.033785 0)
(9.52319 0.0315372 0)
(9.46913 0.0300635 0)
(9.42023 0.0317182 0)
(9.36617 0.03228 0)
(9.34108 0.0564715 0)
(10.0035 0.0579249 0)
(10.0303 0.0560256 0)
(10.056 0.0338212 0)
(10.0702 0.0329581 0)
(10.0767 0.0407437 0)
(10.0775 0.0466825 0)
(10.072 0.0495499 0)
(10.0606 0.0505672 0)
(10.0451 0.0505665 0)
(10.0262 0.0499953 0)
(10.0051 0.0491602 0)
(9.98218 0.0483105 0)
(9.95806 0.0475987 0)
(9.93311 0.0473454 0)
(9.90722 0.047533 0)
(9.88181 0.0499139 0)
(9.855 0.0527719 0)
(9.83354 0.0660165 0)
(9.99778 0.0110647 0)
(10.011 0.0266354 0)
(10.0349 0.0372032 0)
(10.0524 0.0481697 0)
(10.0641 0.0555802 0)
(10.073 0.0583658 0)
(10.0789 0.0586077 0)
(10.0816 0.0579629 0)
(10.0816 0.0570487 0)
(10.0797 0.0560421 0)
(10.0761 0.0550433 0)
(10.0711 0.0542187 0)
(10.0648 0.0536339 0)
(10.0576 0.0535774 0)
(10.0494 0.0540997 0)
(10.0411 0.0564009 0)
(10.0326 0.0597019 0)
(10.0266 0.0680229 0)
(9.99935 0.00721312 0)
(10.009 0.0316926 0)
(10.0274 0.0439926 0)
(10.0416 0.0500354 0)
(10.0525 0.0537778 0)
(10.0624 0.0554692 0)
(10.071 0.0558397 0)
(10.0775 0.0556702 0)
(10.0823 0.0552919 0)
(10.0858 0.0548171 0)
(10.0881 0.0543341 0)
(10.0894 0.0539911 0)
(10.0899 0.0538811 0)
(10.0897 0.0542417 0)
(10.0888 0.0551928 0)
(10.088 0.0574255 0)
(10.0876 0.0606217 0)
(10.0892 0.0659382 0)
(10.0003 0.00919817 0)
(10.0083 0.0312191 0)
(10.0226 0.0410334 0)
(10.0348 0.0455329 0)
(10.0448 0.0492416 0)
(10.0544 0.0516585 0)
(10.0632 0.0527476 0)
(10.0706 0.0531231 0)
(10.0768 0.0531821 0)
(10.082 0.0530842 0)
(10.0864 0.0529402 0)
(10.0901 0.0528914 0)
(10.0932 0.0530481 0)
(10.0957 0.0535976 0)
(10.098 0.0546639 0)
(10.1004 0.0566078 0)
(10.1034 0.0592465 0)
(10.108 0.0626564 0)
(10.0004 0.00896941 0)
(10.0071 0.0271459 0)
(10.019 0.0365217 0)
(10.03 0.0415587 0)
(10.0393 0.0456582 0)
(10.0483 0.0484197 0)
(10.0567 0.0498128 0)
(10.0642 0.050445 0)
(10.0707 0.0507363 0)
(10.0765 0.0508553 0)
(10.0816 0.0509136 0)
(10.0863 0.0510381 0)
(10.0904 0.0513385 0)
(10.0943 0.0519537 0)
(10.098 0.0529794 0)
(10.1019 0.0545744 0)
(10.1064 0.0565795 0)
(10.1121 0.0587215 0)
(10.0004 0.0079455 0)
(10.006 0.023451 0)
(10.0161 0.0328636 0)
(10.0261 0.0382995 0)
(10.0349 0.042382 0)
(10.0432 0.0451741 0)
(10.0512 0.0467244 0)
(10.0585 0.0475393 0)
(10.065 0.0480012 0)
(10.0709 0.0482771 0)
(10.0764 0.0484766 0)
(10.0814 0.048713 0)
(10.0861 0.0490858 0)
(10.0905 0.049693 0)
(10.095 0.0505938 0)
(10.0996 0.0518288 0)
(10.1048 0.0532396 0)
(10.1108 0.054486 0)
(10.0004 0.00699482 0)
(10.005 0.0205099 0)
(10.0136 0.0296016 0)
(10.0227 0.0350893 0)
(10.031 0.0390382 0)
(10.0388 0.0418211 0)
(10.0464 0.0435071 0)
(10.0534 0.0444787 0)
(10.0598 0.0450753 0)
(10.0657 0.045468 0)
(10.0712 0.0457649 0)
(10.0764 0.0460666 0)
(10.0813 0.0464575 0)
(10.0861 0.0470037 0)
(10.0909 0.0477312 0)
(10.0959 0.0486189 0)
(10.1013 0.0495139 0)
(10.1073 0.0501186 0)
(10.0004 0.00616892 0)
(10.0043 0.0179549 0)
(10.0116 0.0264427 0)
(10.0197 0.0318378 0)
(10.0274 0.035671 0)
(10.0348 0.03843 0)
(10.042 0.0402083 0)
(10.0487 0.0412963 0)
(10.055 0.0419921 0)
(10.0609 0.0424671 0)
(10.0664 0.0428263 0)
(10.0716 0.0431568 0)
(10.0766 0.0435267 0)
(10.0816 0.0439784 0)
(10.0865 0.0445141 0)
(10.0917 0.0450853 0)
(10.097 0.0455574 0)
(10.1028 0.0457029 0)
(10.0003 0.00541372 0)
(10.0036 0.0156546 0)
(10.0098 0.0234208 0)
(10.0172 0.0286272 0)
(10.0243 0.0323278 0)
(10.0313 0.03502 0)
(10.038 0.0368328 0)
(10.0445 0.0379935 0)
(10.0506 0.0387562 0)
(10.0564 0.0392842 0)
(10.0618 0.0396762 0)
(10.0671 0.0400066 0)
(10.0721 0.0403289 0)
(10.0771 0.0406687 0)
(10.0821 0.0410148 0)
(10.0872 0.0413121 0)
(10.0925 0.0414518 0)
(10.098 0.0412733 0)
(10.0003 0.00475263 0)
(10.0031 0.0137228 0)
(10.0085 0.0207898 0)
(10.0151 0.0257381 0)
(10.0218 0.0292799 0)
(10.0283 0.0318736 0)
(10.0348 0.0336733 0)
(10.041 0.0348644 0)
(10.0469 0.035661 0)
(10.0525 0.0362131 0)
(10.0579 0.0366122 0)
(10.0632 0.0369216 0)
(10.0682 0.0371844 0)
(10.0732 0.037416 0)
(10.0782 0.0376004 0)
(10.0832 0.0376869 0)
(10.0883 0.0375914 0)
(10.0935 0.0372065 0)
(10.0003 0.00414225 0)
(10.0027 0.0119588 0)
(10.0074 0.0183012 0)
(10.0134 0.022914 0)
(10.0195 0.0262607 0)
(10.0257 0.028728 0)
(10.0318 0.0304789 0)
(10.0378 0.0316687 0)
(10.0436 0.0324744 0)
(10.0491 0.0330299 0)
(10.0544 0.0334182 0)
(10.0595 0.0336934 0)
(10.0645 0.0338893 0)
(10.0695 0.0340164 0)
(10.0744 0.0340587 0)
(10.0793 0.0339746 0)
(10.0842 0.0337018 0)
(10.0891 0.0331717 0)
(10.0002 0.00351183 0)
(10.0024 0.0101248 0)
(10.0064 0.0156308 0)
(10.0117 0.0197828 0)
(10.0173 0.0228497 0)
(10.0231 0.0251285 0)
(10.0289 0.0267769 0)
(10.0346 0.0279231 0)
(10.0401 0.0287061 0)
(10.0455 0.029239 0)
(10.0507 0.0295949 0)
(10.0557 0.0298183 0)
(10.0607 0.0299348 0)
(10.0655 0.029952 0)
(10.0703 0.0298578 0)
(10.075 0.029623 0)
(10.0797 0.029207 0)
(10.0843 0.0285702 0)
(10.0002 0.00285674 0)
(10.002 0.0082177 0)
(10.0055 0.0127853 0)
(10.0101 0.0163443 0)
(10.0153 0.0190266 0)
(10.0206 0.0210375 0)
(10.026 0.0225132 0)
(10.0314 0.0235571 0)
(10.0367 0.0242721 0)
(10.0419 0.0247464 0)
(10.0469 0.0250412 0)
(10.0518 0.0251923 0)
(10.0566 0.0252189 0)
(10.0614 0.0251268 0)
(10.066 0.0249099 0)
(10.0705 0.0245524 0)
(10.0749 0.0240326 0)
(10.0792 0.0233321 0)
(10.0002 0.00217543 0)
(10.0017 0.00623822 0)
(10.0047 0.00977045 0)
(10.0087 0.0125996 0)
(10.0134 0.0147741 0)
(10.0183 0.0164191 0)
(10.0233 0.017636 0)
(10.0284 0.0185031 0)
(10.0335 0.0190913 0)
(10.0384 0.0194627 0)
(10.0433 0.0196631 0)
(10.0481 0.0197212 0)
(10.0527 0.0196514 0)
(10.0572 0.0194587 0)
(10.0616 0.0191423 0)
(10.0659 0.0186968 0)
(10.0701 0.0181155 0)
(10.0741 0.0173923 0)
(10.0002 0.00146384 0)
(10.0015 0.00417067 0)
(10.0041 0.00656735 0)
(10.0077 0.00852741 0)
(10.0118 0.0100575 0)
(10.0163 0.0112214 0)
(10.021 0.0120805 0)
(10.0258 0.0126848 0)
(10.0306 0.0130775 0)
(10.0354 0.0132956 0)
(10.04 0.0133682 0)
(10.0446 0.0133148 0)
(10.049 0.0131461 0)
(10.0534 0.0128666 0)
(10.0575 0.0124783 0)
(10.0616 0.011982 0)
(10.0655 0.0113798 0)
(10.0692 0.0106713 0)
(10.0001 0.000704639 0)
(10.0013 0.00196187 0)
(10.0036 0.0031016 0)
(10.0069 0.00404451 0)
(10.0108 0.00478198 0)
(10.015 0.00533516 0)
(10.0194 0.00572631 0)
(10.0239 0.0059748 0)
(10.0285 0.00609805 0)
(10.033 0.00611033 0)
(10.0375 0.00602271 0)
(10.0418 0.00584314 0)
(10.0461 0.00557674 0)
(10.0502 0.00522609 0)
(10.0541 0.00479322 0)
(10.0579 0.00428073 0)
(10.0616 0.00369322 0)
(10.0651 0.00303139 0)
(10.0001 -0.000146451 0)
(10.0013 -0.000510649 0)
(10.0035 -0.000801508 0)
(10.0066 -0.00104435 0)
(10.0103 -0.00124802 0)
(10.0144 -0.00142894 0)
(10.0187 -0.0016055 0)
(10.0231 -0.00179203 0)
(10.0275 -0.00199723 0)
(10.0319 -0.00222981 0)
(10.0362 -0.00249712 0)
(10.0404 -0.00280545 0)
(10.0444 -0.00315835 0)
(10.0483 -0.00355859 0)
(10.0521 -0.00400718 0)
(10.0557 -0.00450412 0)
(10.0592 -0.00504641 0)
(10.0624 -0.00563629 0)
(10.0001 -0.000963215 0)
(10.0013 -0.00288259 0)
(10.0037 -0.00455473 0)
(10.007 -0.00592954 0)
(10.0109 -0.00701337 0)
(10.0151 -0.00786749 0)
(10.0195 -0.0085548 0)
(10.024 -0.00911847 0)
(10.0284 -0.00959523 0)
(10.0328 -0.0100178 0)
(10.037 -0.0104137 0)
(10.0412 -0.0108017 0)
(10.0451 -0.0111949 0)
(10.049 -0.0116017 0)
(10.0526 -0.0120284 0)
(10.0561 -0.0124786 0)
(10.0594 -0.0129534 0)
(10.0626 -0.0134571 0)
(10.0002 -0.00166773 0)
(10.0015 -0.00495254 0)
(10.0041 -0.00783131 0)
(10.0078 -0.0101278 0)
(10.0121 -0.0118718 0)
(10.0166 -0.0132146 0)
(10.0212 -0.0142637 0)
(10.0258 -0.0150772 0)
(10.0304 -0.0157139 0)
(10.0348 -0.0162325 0)
(10.0391 -0.0166807 0)
(10.0432 -0.0170884 0)
(10.0472 -0.0174764 0)
(10.051 -0.0178576 0)
(10.0546 -0.0182422 0)
(10.058 -0.0186368 0)
(10.0613 -0.0190444 0)
(10.0643 -0.0194706 0)
(10.0002 -0.00233642 0)
(10.0017 -0.00699595 0)
(10.0047 -0.0111008 0)
(10.009 -0.0142271 0)
(10.0138 -0.0164815 0)
(10.0187 -0.0181759 0)
(10.0235 -0.0194715 0)
(10.0284 -0.0204418 0)
(10.0332 -0.0211675 0)
(10.0377 -0.0217303 0)
(10.0421 -0.0221881 0)
(10.0463 -0.0225804 0)
(10.0502 -0.0229334 0)
(10.054 -0.0232669 0)
(10.0576 -0.0235934 0)
(10.061 -0.0239227 0)
(10.0642 -0.0242577 0)
(10.0672 -0.024605 0)
(10.0002 -0.00296205 0)
(10.0018 -0.0090632 0)
(10.0054 -0.0143892 0)
(10.0106 -0.0182448 0)
(10.016 -0.0209568 0)
(10.0213 -0.0229488 0)
(10.0265 -0.0243775 0)
(10.0316 -0.0253701 0)
(10.0366 -0.0260817 0)
(10.0413 -0.0266221 0)
(10.0457 -0.0270487 0)
(10.0499 -0.0273981 0)
(10.0539 -0.0276996 0)
(10.0577 -0.0279758 0)
(10.0613 -0.0282416 0)
(10.0647 -0.0285065 0)
(10.0679 -0.0287743 0)
(10.0709 -0.0290501 0)
(10.0001 -0.00351355 0)
(10.0018 -0.0115242 0)
(10.0063 -0.0178382 0)
(10.0123 -0.02191 0)
(10.0184 -0.0249524 0)
(10.0242 -0.0273398 0)
(10.0298 -0.0289587 0)
(10.0353 -0.0299526 0)
(10.0404 -0.0305931 0)
(10.0452 -0.0310467 0)
(10.0498 -0.0313825 0)
(10.0541 -0.0316399 0)
(10.0581 -0.0318529 0)
(10.0619 -0.0320451 0)
(10.0655 -0.0322318 0)
(10.0688 -0.0324202 0)
(10.072 -0.0326136 0)
(10.0749 -0.0328128 0)
(9.99992 -0.00336696 0)
(10.0016 -0.014947 0)
(10.0073 -0.0226884 0)
(10.0143 -0.0261811 0)
(10.0207 -0.0287481 0)
(10.0269 -0.031096 0)
(10.0332 -0.0328044 0)
(10.0392 -0.0338822 0)
(10.0447 -0.0345735 0)
(10.0497 -0.035033 0)
(10.0544 -0.0353324 0)
(10.0588 -0.0355257 0)
(10.0628 -0.035659 0)
(10.0665 -0.0357637 0)
(10.07 -0.0358584 0)
(10.0731 -0.0359529 0)
(10.0761 -0.0360512 0)
(10.0788 -0.0361562 0)
(9.9986 -0.000388069 0)
(9.99909 -0.0157406 0)
(10.0076 -0.0274011 0)
(10.0167 -0.032449 0)
(10.0238 -0.0348105 0)
(10.0307 -0.0361513 0)
(10.0378 -0.036892 0)
(10.0443 -0.0373517 0)
(10.0501 -0.0376956 0)
(10.0553 -0.0379407 0)
(10.0599 -0.0380871 0)
(10.064 -0.0381595 0)
(10.0676 -0.0381893 0)
(10.0708 -0.0381987 0)
(10.0736 -0.0382027 0)
(10.076 -0.0382094 0)
(10.0782 -0.0382213 0)
(10.08 -0.0382402 0)
(9.99488 0.00134234 0)
(9.99288 -0.00808165 0)
(10.0061 -0.0203321 0)
(10.0202 -0.0322459 0)
(10.0307 -0.0404382 0)
(10.0393 -0.0441 0)
(10.0469 -0.0450028 0)
(10.0531 -0.0448513 0)
(10.058 -0.0443805 0)
(10.0619 -0.0437839 0)
(10.0649 -0.0431404 0)
(10.0671 -0.0425067 0)
(10.0686 -0.0419184 0)
(10.0695 -0.0413847 0)
(10.0698 -0.0409151 0)
(10.0697 -0.0405061 0)
(10.0692 -0.0401546 0)
(10.0685 -0.0398353 0)
(9.99473 -0.0305572 0)
(9.99926 -0.0228639 0)
(10.0147 -0.00262318 0)
(10.0304 -0.00188734 0)
(10.0435 -0.0116285 0)
(10.0534 -0.0208865 0)
(10.0595 -0.027238 0)
(10.062 -0.0314605 0)
(10.0617 -0.0342316 0)
(10.0593 -0.0359264 0)
(10.0553 -0.0368585 0)
(10.05 -0.0372946 0)
(10.0438 -0.0374246 0)
(10.0368 -0.037368 0)
(10.0293 -0.037216 0)
(10.0213 -0.0370243 0)
(10.0132 -0.0368578 0)
(10.005 -0.0366846 0)
(10.0273 -0.182756 0)
(10.0763 -0.28831 0)
(10.0872 -0.247747 0)
(10.0777 -0.186508 0)
(10.0664 -0.140278 0)
(10.0538 -0.108198 0)
(10.0366 -0.0858547 0)
(10.0146 -0.0703921 0)
(9.98951 -0.0596204 0)
(9.96251 -0.0518442 0)
(9.93458 -0.0460219 0)
(9.9063 -0.0415282 0)
(9.87815 -0.0379776 0)
(9.85048 -0.0351077 0)
(9.82352 -0.0327481 0)
(9.79736 -0.030836 0)
(9.77229 -0.0293276 0)
(9.74828 -0.0285191 0)
(9.93575 0.689321 0)
(9.86861 0.609607 0)
(9.76456 0.380631 0)
(9.6267 0.217452 0)
(9.486 0.11928 0)
(9.35737 0.0632038 0)
(9.24291 0.0315935 0)
(9.14143 0.0136346 0)
(9.05181 0.00328248 0)
(8.97291 -0.00277723 0)
(8.90308 -0.00633274 0)
(8.84096 -0.00845478 0)
(8.78531 -0.00970947 0)
(8.73525 -0.0104615 0)
(8.68985 -0.0109684 0)
(8.64851 -0.0112375 0)
(8.61032 -0.0114521 0)
(8.57495 -0.0121153 0)
(0.0119481 -0.0179124 -5.91465e-19)
(0.0325274 -0.0263992 2.98274e-19)
(0.0491227 -0.0245043 0)
(0.0645286 -0.0182316 0)
(0.0746767 -0.0101665 0)
(0.0786724 -0.00184087 -1.22213e-19)
(0.077114 0.00571669 0)
(0.0707386 0.0119219 0)
(0.0602152 0.0166455 0)
(0.0463078 0.0198707 0)
(0.0300689 0.021832 1.06384e-19)
(0.0116888 0.0236372 0)
(-0.00835726 0.0261929 0)
(-0.0296434 0.0312719 0)
(-0.0497714 0.0400941 0)
(-0.0734675 0.0360618 2.47177e-19)
(-0.105556 0.0140477 0)
(-0.128189 0.0125845 0)
(-0.16176 0.0180534 0)
(-0.201307 0.0272246 0)
(-0.244122 0.0372044 0)
(-0.291233 0.0458351 0)
(-0.342465 0.053216 0)
(-0.397366 0.0575458 1.20832e-19)
(-0.455126 0.0588866 -1.10979e-19)
(-0.513936 0.06029 1.02441e-19)
(-0.57434 0.0615971 9.49905e-20)
(-0.636001 0.0625785 0)
(-0.698553 0.0631305 0)
(-0.761549 0.063231 -7.77928e-20)
(-0.82455 0.062883 -7.34039e-20)
(-0.887138 0.0621266 0)
(-0.948944 0.0609971 0)
(-1.00965 0.0595558 -6.31393e-20)
(-1.06901 0.0578546 0)
(-1.1268 0.0559625 0)
(-1.18289 0.0539299 5.59748e-20)
(-1.23718 0.0518182 0)
(-1.28963 0.0496648 5.23572e-20)
(-1.34021 0.0475166 1.01612e-19)
(-1.38896 0.0453956 0)
(-1.43591 0.0433338 0)
(-1.48113 0.0413402 0)
(-1.52468 0.0394353 0)
(-1.56665 0.0376172 0)
(-1.60712 0.0358967 8.77196e-20)
(-1.64617 0.0342657 8.59407e-20)
(-1.6839 0.0327298 8.42661e-20)
(-1.72037 0.0312782 0)
(-1.75567 0.0299137 -8.11694e-20)
(-1.78987 0.0286226 0)
(-1.82305 0.0274075 7.83404e-20)
(-1.85526 0.0262567 7.70039e-20)
(-1.88658 0.0251724 0)
(-1.91706 0.0241425 0)
(-1.94675 0.0231709 0)
(-1.9757 0.0222491 7.20307e-20)
(-2.00397 0.0213814 0)
(-2.0316 0.0205584 0)
(-2.05863 0.0197857 0)
(-2.0851 0.0190574 0)
(-2.11107 0.0183801 0)
(-2.13656 0.0177483 0)
(-2.16163 0.0171679 0)
(-2.18632 0.0166352 0)
(-2.21067 0.0161561 -6.19096e-20)
(-2.23472 0.0157283 0)
(-2.25853 0.0153564 0)
(-2.28213 0.0150389 5.86459e-20)
(-2.30559 0.0147788 5.75624e-20)
(-2.32894 0.0145761 0)
(-2.35224 0.0144318 -5.54031e-20)
(-2.37554 0.0143459 5.43279e-20)
(-2.39891 0.0143169 0)
(-2.42239 0.0143464 -5.21881e-20)
(-2.44604 0.0144339 0)
(-2.46991 0.0145857 0)
(-2.49405 0.0148016 4.90179e-20)
(-2.5185 0.0150843 0)
(-2.54332 0.0154289 -4.69451e-20)
(-2.56852 0.0158417 0)
(-2.59415 0.0163138 4.49211e-20)
(-2.62023 0.0168444 4.39333e-20)
(-2.64678 0.0174175 4.29637e-20)
(-2.67382 0.0180351 8.40322e-20)
(-2.70134 0.0186824 -8.21839e-20)
(-2.72933 0.0193553 0)
(-2.75775 0.0200256 0)
(-2.78653 0.0206707 0)
(-2.81565 0.0211935 -7.53613e-20)
(-2.8451 0.0214169 -7.38181e-20)
(-2.87465 0.0207163 7.23321e-20)
(-2.9039 0.0203334 0)
(-2.9331 0.021852 -6.94292e-20)
(-2.96239 0.0215005 -6.81919e-20)
(-2.99111 0.0206272 -6.69109e-20)
(-3.01916 0.0199567 0)
(-3.04618 0.0194036 0)
(-3.07237 0.019253 0)
(-3.09718 0.0181256 -6.27278e-20)
(-3.12041 0.0172819 0)
(-3.14163 0.0158983 0)
(-3.16046 0.0144195 6.04622e-20)
(-3.17642 0.0127667 0)
(-3.18899 0.0115091 0)
(-3.19814 0.0100502 5.88631e-20)
(-3.20296 0.00717073 0)
(-3.20385 0.00555008 0)
(-3.20126 0.00495867 -5.72509e-20)
(-3.19479 0.00344225 -5.67129e-20)
(-3.18417 0.00162206 0)
(-3.16912 -9.37828e-05 5.55214e-20)
(-3.14948 -0.00254153 0)
(-3.12483 -0.00518323 -5.39515e-20)
(-3.09508 -0.00762126 0)
(-3.05993 -0.0105423 -5.18033e-20)
(-3.01929 -0.0131683 -5.03812e-20)
(-2.97319 -0.0155829 0)
(-2.92149 -0.0187251 0)
(-2.86393 -0.0220577 0)
(-2.80078 -0.0251215 0)
(-2.73187 -0.0287076 0)
(-2.65725 -0.032267 0)
(-2.57693 -0.0359379 0)
(-2.49097 -0.0396474 -2.55933e-20)
(-2.39953 -0.0433949 1.99116e-20)
(-2.30283 -0.0471239 0)
(-2.20112 -0.0508221 0)
(-2.09471 -0.0544307 0)
(-1.98394 -0.0579361 0)
(-1.86918 -0.061292 -4.4239e-20)
(-1.75083 -0.0644816 0)
(-1.62932 -0.0674753 9.39812e-20)
(-1.50508 -0.070259 -1.23229e-19)
(-1.37859 -0.0728205 0)
(-1.25029 -0.0751767 0)
(-1.12061 -0.0773349 0)
(-0.990016 -0.0793058 2.77987e-19)
(-0.858925 -0.0811134 3.28871e-19)
(-0.727738 -0.0827884 0)
(-0.59681 -0.0843309 4.51349e-19)
(-0.466574 -0.0856975 5.2593e-19)
(-0.337095 -0.0869125 -6.12006e-19)
(-0.209228 -0.0881802 0)
(-0.0811727 -0.0882018 0)
(0.0495222 -0.0856386 -7.62269e-19)
(0.178792 -0.0816575 0)
(0.304902 -0.0774087 0)
(0.427452 -0.0732265 0)
(0.54603 -0.0691857 0)
(0.660457 -0.0653159 6.38029e-19)
(0.770626 -0.0616022 6.22656e-19)
(0.876524 -0.058059 0)
(0.978169 -0.0547193 5.96742e-19)
(1.07562 -0.0515455 0)
(1.16893 -0.0485042 0)
(1.25824 -0.0456358 5.66348e-19)
(1.34368 -0.0429465 0)
(1.42534 -0.0404075 5.49788e-19)
(1.50336 -0.0380063 0)
(1.57784 -0.0357347 0)
(1.64892 -0.0335902 5.29165e-19)
(1.71675 -0.0315718 0)
(1.78144 -0.0296684 5.17537e-19)
(1.84312 -0.0278654 0)
(1.90188 -0.0261607 0)
(1.95783 -0.0245513 0)
(2.01106 -0.02302 -4.98305e-19)
(2.06165 -0.0215624 0)
(2.10967 -0.0201702 4.90438e-19)
(2.15511 -0.0188189 0)
(2.19797 -0.0174818 0)
(2.23808 -0.0161372 0)
(2.27518 -0.0147148 0)
(2.30877 -0.0131129 0)
(2.33745 -0.0111419 0)
(2.36057 -0.00810122 0)
(2.36738 -0.00227816 -9.61224e-19)
(2.3608 0.0110445 0)
(2.24774 0.0299632 0)
(0.0113157 -0.0666607 1.33339e-18)
(0.0282332 -0.0651417 -5.68176e-19)
(0.0347422 -0.0493591 0)
(0.0386318 -0.0329702 1.6617e-19)
(0.0386657 -0.0167491 0)
(0.0348867 -0.00120627 6.36084e-20)
(0.0276697 0.0131215 -1.19336e-19)
(0.0170042 0.0258411 -1.15586e-19)
(0.00271561 0.0367889 0)
(-0.0152594 0.0461214 -1.15085e-19)
(-0.0370976 0.0540351 -5.76531e-20)
(-0.0628235 0.0603978 0)
(-0.0921055 0.0662318 0)
(-0.124567 0.072985 0)
(-0.15957 0.0811067 0)
(-0.201016 0.08871 -6.70145e-20)
(-0.248473 0.0940058 0)
(-0.299477 0.101737 1.25083e-19)
(-0.351642 0.111722 0)
(-0.404527 0.122772 0)
(-0.45833 0.133291 -9.91511e-20)
(-0.51356 0.14195 0)
(-0.570401 0.14873 8.67406e-20)
(-0.629256 0.154061 -4.13231e-20)
(-0.689601 0.157787 3.94229e-20)
(-0.750322 0.160177 -3.76699e-20)
(-0.811019 0.161497 -3.60471e-20)
(-0.87122 0.161737 0)
(-0.930546 0.160877 0)
(-0.988694 0.158976 3.18933e-20)
(-1.04544 0.156136 -3.04838e-20)
(-1.1006 0.152504 0)
(-1.15407 0.148225 0)
(-1.20579 0.143457 2.7781e-20)
(-1.25571 0.13834 0)
(-1.30385 0.133016 0)
(-1.35023 0.127596 -2.55055e-20)
(-1.3949 0.122187 0)
(-1.43792 0.116862 2.40727e-20)
(-1.47935 0.111688 -4.74457e-20)
(-1.51928 0.106703 0)
(-1.55779 0.101943 0)
(-1.59495 0.0974205 -8.88219e-20)
(-1.63084 0.093149 -8.71663e-20)
(-1.66555 0.0891241 -8.56057e-20)
(-1.69915 0.0853471 4.1904e-20)
(-1.73169 0.0818039 -4.15169e-20)
(-1.76327 0.0784895 -1.22227e-19)
(-1.79392 0.0753862 8.01021e-20)
(-1.82372 0.0724865 3.95707e-20)
(-1.85271 0.0697712 0)
(-1.88096 0.0672322 -3.83849e-20)
(-1.90851 0.064852 3.75793e-20)
(-1.9354 0.0626248 0)
(-1.96169 0.0605344 0)
(-1.9874 0.0585768 0)
(-2.01259 0.0567397 -3.56585e-20)
(-2.0373 0.0550222 0)
(-2.06154 0.0534133 6.9082e-20)
(-2.08538 0.051913 0)
(-2.10883 0.0505132 6.70691e-20)
(-2.13194 0.0492159 0)
(-2.15473 0.0480148 -6.50737e-20)
(-2.17726 0.046912 0)
(-2.19955 0.0459032 6.30851e-20)
(-2.22164 0.0449908 -3.09938e-20)
(-2.24358 0.0441721 0)
(-2.26539 0.0434493 -6.00994e-20)
(-2.28712 0.0428201 -2.95955e-20)
(-2.3088 0.0422853 -2.90957e-20)
(-2.33048 0.0418442 0)
(-2.3522 0.0414956 -2.80132e-20)
(-2.37399 0.0412384 -2.76039e-20)
(-2.39589 0.041067 0)
(-2.41794 0.040978 2.66194e-20)
(-2.44018 0.0409634 -5.21625e-20)
(-2.46264 0.0410221 0)
(-2.48532 0.0411454 -2.51662e-20)
(-2.50827 0.0413276 0)
(-2.53149 0.0415537 7.25269e-20)
(-2.55499 0.0418208 0)
(-2.57878 0.0421142 -6.97397e-20)
(-2.60285 0.0424279 -2.28493e-20)
(-2.62717 0.0427382 2.22262e-20)
(-2.65174 0.0430384 4.35618e-20)
(-2.67649 0.0433049 -4.26919e-20)
(-2.70139 0.0435307 0)
(-2.72634 0.0436955 0)
(-2.75121 0.0437943 0)
(-2.7759 0.0437864 1.19543e-19)
(-2.80031 0.043611 3.93297e-20)
(-2.82447 0.0432205 -3.8643e-20)
(-2.84832 0.042576 0)
(-2.87148 0.0417149 -3.67051e-20)
(-2.89385 0.040674 3.68613e-20)
(-2.91528 0.0393507 3.63116e-20)
(-2.93562 0.0376982 0)
(-2.95466 0.0357096 0)
(-2.9721 0.0333765 0)
(-2.98783 0.0307008 3.45805e-20)
(-3.00163 0.0276314 0)
(-3.01338 0.024182 -6.73111e-20)
(-3.02296 0.0203328 -1.00482e-19)
(-3.03028 0.01612 6.63771e-20)
(-3.03535 0.0116236 0)
(-3.03787 0.00693883 3.24643e-20)
(-3.03803 0.00221221 0)
(-3.03506 -0.00269669 6.45092e-20)
(-3.02821 -0.00774913 -3.18416e-20)
(-3.01726 -0.0129308 -3.16458e-20)
(-3.00214 -0.0183854 0)
(-2.98251 -0.0240543 -9.45268e-20)
(-2.9581 -0.029868 6.2288e-20)
(-2.92884 -0.0358608 3.0915e-20)
(-2.89445 -0.0420883 0)
(-2.85473 -0.048396 2.98617e-20)
(-2.80956 -0.054701 8.73838e-20)
(-2.75869 -0.0610663 0)
(-2.70198 -0.0674029 5.48694e-20)
(-2.6396 -0.0737658 5.26633e-20)
(-2.57131 -0.0801023 5.01423e-20)
(-2.49714 -0.0863473 0)
(-2.41717 -0.092477 0)
(-2.33136 -0.0984266 0)
(-2.23979 -0.104093 -1.81577e-20)
(-2.14262 -0.109484 -1.45196e-20)
(-2.04007 -0.114537 0)
(-1.93242 -0.119244 -1.82741e-20)
(-1.81997 -0.123549 -1.13065e-20)
(-1.70309 -0.127438 0)
(-1.58218 -0.130864 6.90407e-21)
(-1.45765 -0.133819 2.74335e-20)
(-1.32998 -0.136278 -2.60537e-20)
(-1.19963 -0.138243 -3.11346e-20)
(-1.06708 -0.13972 0)
(-0.932834 -0.140731 0)
(-0.797357 -0.141298 0)
(-0.661127 -0.141463 -8.58458e-20)
(-0.524599 -0.141266 9.28414e-20)
(-0.388173 -0.140756 2.21464e-19)
(-0.252235 -0.139996 -1.29459e-19)
(-0.116781 -0.139103 1.36214e-19)
(0.0183883 -0.138225 1.53887e-19)
(0.152293 -0.137509 0)
(0.283151 -0.135988 0)
(0.409993 -0.132687 -1.69533e-19)
(0.532932 -0.128098 0)
(0.652516 -0.12296 0)
(0.768798 -0.11761 3.84234e-19)
(0.881614 -0.112214 0)
(0.99083 -0.106858 2.00587e-19)
(1.09635 -0.101598 -2.10343e-19)
(1.19813 -0.0964651 0)
(1.29617 -0.0914996 2.14535e-19)
(1.39048 -0.0867132 0)
(1.48109 -0.0821103 0)
(1.5681 -0.0777071 -2.28915e-19)
(1.65156 -0.0735142 4.59956e-19)
(1.73153 -0.069506 -2.3418e-19)
(1.80813 -0.0656843 0)
(1.88148 -0.0620484 0)
(1.95168 -0.0586047 2.3792e-19)
(2.01884 -0.055341 0)
(2.08306 -0.0522399 2.41568e-19)
(2.14445 -0.049288 0)
(2.20311 -0.0464827 0)
(2.25912 -0.0438128 0)
(2.31257 -0.0412622 2.4895e-19)
(2.36354 -0.0388171 0)
(2.41206 -0.0364538 -2.50953e-19)
(2.45815 -0.0341315 0)
(2.50178 -0.0317958 0)
(2.54281 -0.029365 5.06205e-19)
(2.58099 -0.026711 -5.08272e-19)
(2.61589 -0.0235788 0)
(2.64655 -0.0195604 0)
(2.67202 -0.0134032 0)
(2.68893 -0.0026736 1.575e-18)
(2.7058 0.0191205 0)
(2.69411 0.0587015 -1.08933e-18)
(0.00311772 -0.095401 -1.02236e-21)
(0.0102989 -0.0773316 5.77751e-19)
(0.00780885 -0.0507363 0)
(0.00320437 -0.0263564 -2.48626e-19)
(-0.00445487 -0.00354847 0)
(-0.0150127 0.0179665 0)
(-0.0282998 0.0381968 7.64239e-23)
(-0.044413 0.0571357 7.94445e-20)
(-0.0636004 0.0747891 7.67328e-20)
(-0.0861239 0.0912176 7.53059e-20)
(-0.112186 0.106353 0)
(-0.141915 0.120238 0)
(-0.175363 0.133504 -7.19894e-20)
(-0.212209 0.146892 -1.42091e-19)
(-0.252095 0.16055 1.40344e-19)
(-0.295336 0.17367 0)
(-0.341919 0.185767 1.33902e-19)
(-0.39124 0.198118 -6.4381e-20)
(-0.442104 0.210555 0)
(-0.493543 0.222397 1.16441e-19)
(-0.544993 0.232913 5.54596e-20)
(-0.596647 0.241702 -1.05627e-19)
(-0.648868 0.248657 -5.06797e-20)
(-0.701438 0.253634 0)
(-0.753956 0.256655 9.34103e-20)
(-0.806197 0.257792 8.99052e-20)
(-0.857912 0.257191 0)
(-0.908828 0.254976 8.34626e-20)
(-0.958745 0.251299 0)
(-1.00754 0.246339 7.78089e-20)
(-1.05514 0.2403 3.77404e-20)
(-1.1015 0.233399 0)
(-1.14658 0.225849 0)
(-1.19038 0.217849 0)
(-1.23291 0.20958 0)
(-1.27419 0.2012 0)
(-1.31424 0.192844 0)
(-1.35309 0.184622 6.21305e-20)
(-1.39076 0.17662 -9.12257e-20)
(-1.4273 0.168901 0)
(-1.46274 0.161509 0)
(-1.49711 0.154472 0)
(-1.53046 0.147803 1.83487e-22)
(-1.56283 0.141506 5.52492e-20)
(-1.59427 0.135575 1.08418e-19)
(-1.6248 0.130002 -1.0661e-19)
(-1.65448 0.124772 -5.23609e-20)
(-1.68334 0.119869 5.16965e-20)
(-1.71143 0.115274 -1.52846e-22)
(-1.73878 0.11097 4.99855e-20)
(-1.76543 0.106936 0)
(-1.79142 0.103156 4.8532e-20)
(-1.81679 0.0996126 -1.29491e-22)
(-1.84157 0.0962904 0)
(-1.8658 0.0931748 0)
(-1.8895 0.0902543 -4.58266e-20)
(-1.91272 0.0875177 0)
(-1.93548 0.084957 0)
(-1.95782 0.0825636 4.3808e-20)
(-1.97976 0.080332 8.65466e-20)
(-2.00134 0.0782565 -4.2732e-20)
(-2.02258 0.0763339 0)
(-2.04352 0.0745606 4.14767e-20)
(-2.06418 0.0729345 0)
(-2.08461 0.0714536 4.0088e-20)
(-2.10483 0.0701168 3.96026e-20)
(-2.12487 0.068923 -7.78284e-20)
(-2.14478 0.0678712 -3.8229e-20)
(-2.16457 0.0669604 0)
(-2.18429 0.0661883 7.4092e-20)
(-2.20397 0.0655533 0)
(-2.22365 0.0650513 1.07467e-19)
(-2.24335 0.0646789 7.03596e-20)
(-2.26311 0.0644283 6.91207e-20)
(-2.28296 0.0642933 -6.78863e-20)
(-2.30293 0.0642636 1.00064e-19)
(-2.32305 0.064332 0)
(-2.34334 0.0644847 0)
(-2.36381 0.0647089 -6.30257e-20)
(-2.38448 0.0649855 -9.28537e-20)
(-2.40536 0.0653004 0)
(-2.42644 0.0656311 2.98632e-20)
(-2.44772 0.065959 0)
(-2.46919 0.0662558 -8.60055e-20)
(-2.49083 0.0665008 -2.61446e-22)
(-2.51259 0.0666618 2.77774e-22)
(-2.53443 0.0667137 5.40648e-20)
(-2.55628 0.0666234 0)
(-2.57806 0.066361 -5.20928e-20)
(-2.59966 0.065871 -3.49631e-22)
(-2.62105 0.0650856 0)
(-2.6422 0.0639474 0)
(-2.663 0.0625121 0)
(-2.68322 0.0608645 4.82871e-20)
(-2.70271 0.0588297 0)
(-2.7214 0.0563109 0)
(-2.73913 0.0533615 0)
(-2.75577 0.0499856 0)
(-2.77104 0.0461828 0)
(-2.78485 0.0418874 4.44961e-20)
(-2.797 0.0371059 0)
(-2.80735 0.0318392 4.41537e-20)
(-2.81573 0.0260902 4.38413e-20)
(-2.82194 0.019923 -4.3568e-20)
(-2.82574 0.0133913 0)
(-2.82679 0.00645891 -4.29903e-20)
(-2.82487 -0.000952111 0)
(-2.81968 -0.00875412 -4.23647e-20)
(-2.8107 -0.0168526 4.21116e-20)
(-2.79782 -0.0252802 1.24854e-19)
(-2.78075 -0.034118 0)
(-2.75926 -0.0432832 1.22719e-19)
(-2.73308 -0.0527602 4.02433e-20)
(-2.70205 -0.0625091 0)
(-2.66596 -0.0725244 7.84186e-20)
(-2.62458 -0.0827252 7.69427e-20)
(-2.5778 -0.0929682 -1.12712e-19)
(-2.52535 -0.10324 0)
(-2.46718 -0.113512 -3.51592e-20)
(-2.40326 -0.123751 -3.36526e-20)
(-2.33345 -0.133887 -9.63751e-20)
(-2.25784 -0.14385 0)
(-2.17642 -0.153556 0)
(-2.0892 -0.162914 0)
(-1.99628 -0.171813 -2.34978e-20)
(-1.89783 -0.180194 0)
(-1.79408 -0.187987 0)
(-1.6853 -0.195133 1.12581e-20)
(-1.57182 -0.201571 6.92536e-21)
(-1.45402 -0.207251 0)
(-1.33232 -0.212123 0)
(-1.20715 -0.216157 -1.64847e-20)
(-1.079 -0.219329 0)
(-0.948351 -0.221638 4.01621e-20)
(-0.815705 -0.223094 4.93898e-20)
(-0.681562 -0.22373 0)
(-0.546414 -0.223591 0)
(-0.410737 -0.222732 -9.05619e-20)
(-0.274979 -0.221228 -4.20848e-21)
(-0.139495 -0.219195 -4.33076e-21)
(-0.00450125 -0.216763 0)
(0.129375 -0.213878 -2.92975e-19)
(0.261328 -0.210349 0)
(0.390799 -0.206188 0)
(0.517226 -0.201471 0)
(0.640206 -0.196067 1.89695e-19)
(0.759721 -0.189902 0)
(0.875877 -0.183182 -4.09344e-19)
(0.98864 -0.176133 -2.16995e-19)
(1.09791 -0.16892 0)
(1.2036 -0.161652 -2.33241e-19)
(1.30566 -0.154415 0)
(1.40406 -0.147269 0)
(1.49879 -0.140271 -7.58253e-19)
(1.58989 -0.133456 5.1658e-19)
(1.67741 -0.126841 0)
(1.76142 -0.120448 5.39808e-19)
(1.84197 -0.114309 -2.7721e-19)
(1.91917 -0.108419 0)
(1.99314 -0.102778 0)
(2.06399 -0.0973827 0)
(2.13181 -0.0922399 -8.79889e-19)
(2.19672 -0.0873402 0)
(2.25881 -0.0826649 -3.01386e-19)
(2.3182 -0.0782015 0)
(2.37498 -0.0739428 0)
(2.42924 -0.0698728 0)
(2.48106 -0.0659734 0)
(2.53051 -0.0622234 0)
(2.57765 -0.0585813 0)
(2.62247 -0.0549899 -6.37716e-19)
(2.66496 -0.0513674 0)
(2.70501 -0.0475872 -3.24087e-19)
(2.74239 -0.0434545 9.77155e-19)
(2.77678 -0.0386272 0)
(2.80747 -0.0325053 0)
(2.83388 -0.0238032 -6.67466e-19)
(2.85369 -0.0102852 -6.78346e-19)
(2.8717 0.0136342 6.81583e-19)
(2.87694 0.0578648 7.0468e-19)
(-0.00672271 -0.0983247 -1.77066e-18)
(-0.00873667 -0.0674791 -7.02455e-19)
(-0.0185359 -0.0351591 -2.70655e-19)
(-0.0302592 -0.00561533 -9.88739e-20)
(-0.044156 0.0220476 0)
(-0.0601539 0.0483466 1.41843e-19)
(-0.0782757 0.0735092 -6.46703e-20)
(-0.0986501 0.09763 0)
(-0.121456 0.120741 -5.8138e-20)
(-0.146848 0.142826 0)
(-0.174937 0.163818 1.09242e-19)
(-0.205851 0.183725 0)
(-0.239614 0.202752 5.22057e-20)
(-0.276036 0.22113 1.01951e-19)
(-0.314829 0.238867 -9.93763e-20)
(-0.355781 0.255661 0)
(-0.398709 0.271258 -9.35491e-20)
(-0.443285 0.28581 0)
(-0.488962 0.299249 0)
(-0.535193 0.311311 -8.36883e-20)
(-0.581578 0.321668 0)
(-0.627903 0.330067 1.18958e-22)
(-0.674046 0.336322 0)
(-0.71987 0.340275 0)
(-0.765226 0.341893 -4.15388e-23)
(-0.810017 0.341288 -6.67232e-20)
(-0.854151 0.338645 -6.43722e-20)
(-0.897553 0.334182 -6.22464e-20)
(-0.94016 0.328145 0)
(-0.981926 0.320787 -1.16669e-19)
(-1.02282 0.312354 0)
(-1.06283 0.303088 -5.4926e-20)
(-1.10194 0.293212 0)
(-1.14015 0.282935 0)
(-1.17744 0.272441 5.06478e-20)
(-1.21383 0.261891 0)
(-1.24931 0.25142 -4.82567e-20)
(-1.2839 0.241138 -6.94724e-23)
(-1.31759 0.231132 9.24192e-20)
(-1.3504 0.221466 -9.04648e-20)
(-1.38234 0.212186 0)
(-1.41342 0.203321 0)
(-1.44366 0.194887 -4.26611e-20)
(-1.47308 0.186891 0)
(-1.5017 0.179328 -4.13419e-20)
(-1.52955 0.17219 4.06662e-20)
(-1.55665 0.165464 4.002e-20)
(-1.58303 0.159132 0)
(-1.60871 0.153176 -3.88025e-20)
(-1.63373 0.147575 -3.82255e-20)
(-1.65811 0.14231 7.52283e-20)
(-1.68188 0.137361 -3.7122e-20)
(-1.70506 0.132709 -3.65912e-20)
(-1.7277 0.128337 0)
(-1.74981 0.124228 0)
(-1.77142 0.120368 3.50599e-20)
(-1.79256 0.116746 0)
(-1.81326 0.11335 0)